 Gaussian 09, Revision C.01,
 Gaussian 09:  EM64L-G09RevC.01 23-Sep-2011

 ----------------------------------------------------------------------
 #p wb97xd/aug-cc-PVTz iop(3/107=0330000000) iop(3/108=0330000000) int=
 ultrafine Scan
 ----------------------------------------------------------------------

 (Enter /home/matheus/.gaussian/g09/l101.exe)
 ----
 PTCC
 ----
 Charge =  0 Multiplicity = 1

 SCF Done:  E(RwB97XD) =  -2905.42505765     A.U. after   12 cycles

 The electronic state is 1-A1.
 Alpha  occ. eigenvalues -- -513.15467 -67.42517 -60.97384 -60.97378 -60.97369
 Alpha  occ. eigenvalues --  -19.36763 -19.36759  -9.87891  -7.57212  -7.57189
 Alpha  occ. eigenvalues --   -7.57160  -3.43729  -3.43727  -3.43702  -3.43684
 Alpha  occ. eigenvalues --   -3.43681  -1.28137  -1.08687  -1.05987  -0.71868
 Alpha  occ. eigenvalues --   -0.57209  -0.55659  -0.55047  -0.53605  -0.53128
 Alpha  occ. eigenvalues --   -0.50700  -0.39072
 Alpha virt. eigenvalues --    0.03593   0.04633   0.08734   0.09491   0.10179
 Alpha virt. eigenvalues --    0.12083   0.12730   0.16935   0.17588   0.17765
 Alpha virt. eigenvalues --    0.18894   0.19293   0.20657   0.21652   0.22693

 Mulliken atomic charges:
              1
     1  O   -0.236319
     2  O   -0.236319
     3  H    0.227851
     4  H    0.227851
     5  Kr   0.016936
 Sum of Mulliken atomic charges =   0.00000

 Dipole moment (field-independent basis, Debye):
    X=              0.0000    Y=              0.0000    Z=              3.7603  Tot=              3.7603
 Quadrupole moment (field-independent basis, Debye-Ang):
   XX=            -30.5290   YY=            -28.1622   ZZ=            -38.8184
   XY=              0.0000   XZ=              0.0000   YZ=              0.0000

 SCF Done:  E(RwB97XD) =  -2905.42776304     A.U. after    9 cycles
 SCF Done:  E(RwB97XD) =  -2905.42954930     A.U. after    9 cycles
 SCF Done:  E(RwB97XD) =  -2905.43070088     A.U. after    8 cycles
 SCF Done:  E(RwB97XD) =  -2905.43139531     A.U. after    8 cycles
 SCF Done:  E(RwB97XD) =  -2905.43178166     A.U. after    8 cycles
 SCF Done:  E(RwB97XD) =  -2905.43194441     A.U. after    8 cycles
 SCF Done:  E(RwB97XD) =  -2905.43196769     A.U. after    8 cycles
 SCF Done:  E(RwB97XD) =  -2905.43189952     A.U. after    8 cycles
 SCF Done:  E(RwB97XD) =  -2905.43176963     A.U. after    8 cycles
 SCF Done:  E(RwB97XD) =  -2905.43142767     A.U. after    7 cycles
 SCF Done:  E(RwB97XD) =  -2905.43124778     A.U. after    7 cycles
 SCF Done:  E(RwB97XD) =  -2905.43106704     A.U. after    7 cycles
 SCF Done:  E(RwB97XD) =  -2905.43090465     A.U. after    7 cycles
 SCF Done:  E(RwB97XD) =  -2905.43075479     A.U. after    7 cycles
 SCF Done:  E(RwB97XD) =  -2905.43061772     A.U. after    7 cycles
 SCF Done:  E(RwB97XD) =  -2905.43049768     A.U. after    7 cycles
 SCF Done:  E(RwB97XD) =  -2905.43039336     A.U. after    7 cycles
 SCF Done:  E(RwB97XD) =  -2905.43030049     A.U. after    7 cycles

                         Standard orientation:
 ---------------------------------------------------------------------
 Center     Atomic      Atomic             Coordinates (Angstroms)
 Number     Number       Type             X           Y           Z
 ---------------------------------------------------------------------
      1          8           0        0.000000    0.725000   -3.367360
      2          8           0        0.000000   -0.725000   -3.367360
      3          1           0        0.000000    1.023510   -2.448639
      4          1           0        0.000000   -1.023510   -2.448639
      5         36           0        0.000000    0.000000    1.632640
 ---------------------------------------------------------------------

 SCF Done:  E(RwB97XD) =  -2905.43021987     A.U. after    7 cycles
 Normal termination of Gaussian 09 at Tue Jan 14 11:11:42 2020.
