 Gaussian 09, Revision C.01,
 Gaussian 09:  EM64L-G09RevC.01 23-Sep-2011

 ----------------------------------------------------------------------
 #p wb97xd/aug-cc-PVTz iop(3/107=0330000000) iop(3/108=0330000000) int=
 ultrafine Scan
 ----------------------------------------------------------------------

 (Enter /home/matheus/.gaussian/g09/l101.exe)
 ----
 PTCC
 ----
 Charge =  0 Multiplicity = 1

 SCF Done:  E(RwB97XD) =  -2905.42633631     A.U. after   12 cycles

 The electronic state is 1-A.
 Alpha  occ. eigenvalues -- -513.15170 -67.42222 -60.97089 -60.97083 -60.97074
 Alpha  occ. eigenvalues --  -19.36901 -19.36827  -9.87598  -7.56918  -7.56896
 Alpha  occ. eigenvalues --   -7.56866  -3.43436  -3.43433  -3.43408  -3.43392
 Alpha  occ. eigenvalues --   -3.43387  -1.28197  -1.08379  -1.06069  -0.71741
 Alpha  occ. eigenvalues --   -0.57196  -0.56197  -0.54712  -0.53730  -0.52862
 Alpha  occ. eigenvalues --   -0.49951  -0.39392
 Alpha virt. eigenvalues --    0.03575   0.04622   0.08717   0.09486   0.10248
 Alpha virt. eigenvalues --    0.12044   0.12761   0.16189   0.17262   0.18191
 Alpha virt. eigenvalues --    0.18625   0.19468   0.20577   0.21689   0.23078

 Mulliken atomic charges:
              1
     1  O   -0.229547
     2  O   -0.240739
     3  H    0.222401
     4  H    0.231216
     5  Kr   0.016669
 Sum of Mulliken atomic charges =   0.00000

 Dipole moment (field-independent basis, Debye):
    X=             -3.6039    Y=             -0.0452    Z=              0.4493  Tot=              3.6321
 Quadrupole moment (field-independent basis, Debye-Ang):
   XX=            -38.7051   YY=            -28.1243   ZZ=            -30.3460
   XY=             -0.1364   XZ=              0.5126   YZ=             -0.6022

 SCF Done:  E(RwB97XD) =  -2905.42887837     A.U. after   10 cycles
 SCF Done:  E(RwB97XD) =  -2905.43056375     A.U. after    9 cycles
 SCF Done:  E(RwB97XD) =  -2905.43164168     A.U. after    9 cycles
 SCF Done:  E(RwB97XD) =  -2905.43229321     A.U. after    9 cycles
 SCF Done:  E(RwB97XD) =  -2905.43265469     A.U. after    9 cycles
 SCF Done:  E(RwB97XD) =  -2905.43280516     A.U. after    9 cycles
 SCF Done:  E(RwB97XD) =  -2905.43282318     A.U. after    8 cycles
 SCF Done:  E(RwB97XD) =  -2905.43275142     A.U. after    8 cycles
 SCF Done:  E(RwB97XD) =  -2905.43262226     A.U. after    8 cycles
 SCF Done:  E(RwB97XD) =  -2905.43228641     A.U. after    8 cycles
 SCF Done:  E(RwB97XD) =  -2905.43210907     A.U. after    8 cycles
 SCF Done:  E(RwB97XD) =  -2905.43193701     A.U. after    8 cycles
 SCF Done:  E(RwB97XD) =  -2905.43177909     A.U. after    8 cycles
 SCF Done:  E(RwB97XD) =  -2905.43163419     A.U. after    8 cycles
 SCF Done:  E(RwB97XD) =  -2905.43150337     A.U. after    8 cycles
 SCF Done:  E(RwB97XD) =  -2905.43138819     A.U. after    8 cycles
 SCF Done:  E(RwB97XD) =  -2905.43128764     A.U. after    7 cycles
 SCF Done:  E(RwB97XD) =  -2905.43119886     A.U. after    7 cycles

                         Standard orientation:
 ---------------------------------------------------------------------
 Center     Atomic      Atomic             Coordinates (Angstroms)
 Number     Number       Type             X           Y           Z
 ---------------------------------------------------------------------
      1          8           0        3.366455   -0.723500   -0.037290
      2          8           0        3.366156    0.725811    0.007420
      3          1           0        2.504059   -1.031807    0.269915
      4          1           0        2.447377    1.023913    0.019113
      5         36           0       -1.633676   -0.000294   -0.001391
 ---------------------------------------------------------------------

 SCF Done:  E(RwB97XD) =  -2905.43112228     A.U. after    7 cycles
 Normal termination of Gaussian 09 at Fri Jan 17 14:22:12 2020.
