 Gaussian 09, Revision C.01,
 Gaussian 09:  EM64L-G09RevC.01 23-Sep-2011

 ----------------------------------------------------------------------
 #p wb97xd/aug-cc-PVTz iop(3/107=0330000000) iop(3/108=0330000000) int=
 ultrafine Scan
 ----------------------------------------------------------------------

 (Enter /home/matheus/.gaussian/g09/l101.exe)
 ----
 PTCC
 ----
 Charge =  0 Multiplicity = 1

 SCF Done:  E(RwB97XD) =  -2905.42770609     A.U. after   12 cycles

 The electronic state is 1-A.
 Alpha  occ. eigenvalues -- -513.14850 -67.41904 -60.96771 -60.96765 -60.96756
 Alpha  occ. eigenvalues --  -19.37036 -19.36891  -9.87281  -7.56600  -7.56579
 Alpha  occ. eigenvalues --   -7.56549  -3.43119  -3.43116  -3.43091  -3.43074
 Alpha  occ. eigenvalues --   -3.43070  -1.28249  -1.08052  -1.06146  -0.71584
 Alpha  occ. eigenvalues --   -0.57373  -0.56656  -0.54354  -0.53590  -0.52622
 Alpha  occ. eigenvalues --   -0.49246  -0.39760
 Alpha virt. eigenvalues --    0.03552   0.04603   0.08699   0.09499   0.10307
 Alpha virt. eigenvalues --    0.11990   0.12802   0.15606   0.17354   0.18206
 Alpha virt. eigenvalues --    0.18440   0.19567   0.20471   0.21869   0.23311

 Mulliken atomic charges:
              1
     1  O   -0.226178
     2  O   -0.244227
     3  H    0.220182
     4  H    0.234117
     5  Kr   0.016107
 Sum of Mulliken atomic charges =   0.00000

 Dipole moment (field-independent basis, Debye):
    X=             -3.4261    Y=             -0.0954    Z=              0.6694  Tot=              3.4922
 Quadrupole moment (field-independent basis, Debye-Ang):
   XX=            -38.5465   YY=            -28.0813   ZZ=            -30.1361
   XY=             -0.3047   XZ=              0.8154   YZ=             -0.8901

 SCF Done:  E(RwB97XD) =  -2905.43010345     A.U. after   10 cycles
 SCF Done:  E(RwB97XD) =  -2905.43168334     A.U. after    9 cycles
 SCF Done:  E(RwB97XD) =  -2905.43269784     A.U. after    9 cycles
 SCF Done:  E(RwB97XD) =  -2905.43331046     A.U. after    9 cycles
 SCF Done:  E(RwB97XD) =  -2905.43364461     A.U. after    9 cycles
 SCF Done:  E(RwB97XD) =  -2905.43378291     A.U. after    9 cycles
 SCF Done:  E(RwB97XD) =  -2905.43379218     A.U. after    8 cycles
 SCF Done:  E(RwB97XD) =  -2905.43371718     A.U. after    8 cycles
 SCF Done:  E(RwB97XD) =  -2905.43358856     A.U. after    8 cycles
 SCF Done:  E(RwB97XD) =  -2905.43325812     A.U. after    8 cycles
 SCF Done:  E(RwB97XD) =  -2905.43308735     A.U. after    8 cycles
 SCF Done:  E(RwB97XD) =  -2905.43292073     A.U. after    8 cycles
 SCF Done:  E(RwB97XD) =  -2905.43276908     A.U. after    8 cycles
 SCF Done:  E(RwB97XD) =  -2905.43263035     A.U. after    8 cycles
 SCF Done:  E(RwB97XD) =  -2905.43250501     A.U. after    8 cycles
 SCF Done:  E(RwB97XD) =  -2905.43239456     A.U. after    8 cycles
 SCF Done:  E(RwB97XD) =  -2905.43229884     A.U. after    8 cycles
 SCF Done:  E(RwB97XD) =  -2905.43221455     A.U. after    7 cycles

                         Standard orientation:
 ---------------------------------------------------------------------
 Center     Atomic      Atomic             Coordinates (Angstroms)
 Number     Number       Type             X           Y           Z
 ---------------------------------------------------------------------
      1          8           0        3.365349   -0.721703   -0.055068
      2          8           0        3.364686    0.726799    0.010824
      3          1           0        2.571729   -1.041290    0.393470
      4          1           0        2.445837    1.024411    0.028109
      5         36           0       -1.634940   -0.000663   -0.001879
 ---------------------------------------------------------------------

 SCF Done:  E(RwB97XD) =  -2905.43214149     A.U. after    7 cycles
 Normal termination of Gaussian 09 at Fri Jan 17 14:34:36 2020.
