 Gaussian 09, Revision C.01,
 Gaussian 09:  EM64L-G09RevC.01 23-Sep-2011

 ----------------------------------------------------------------------
 #p wb97xd/aug-cc-PVTz iop(3/107=0330000000) iop(3/108=0330000000) int=
 ultrafine Scan
 ----------------------------------------------------------------------

 (Enter /home/matheus/.gaussian/g09/l101.exe)
 ----
 PTCC
 ----
 Charge =  0 Multiplicity = 1

 SCF Done:  E(RwB97XD) =  -2905.42539514     A.U. after   12 cycles

 The electronic state is 1-A.
 Alpha  occ. eigenvalues -- -513.15389 -67.42439 -60.97306 -60.97301 -60.97292
 Alpha  occ. eigenvalues --  -19.36800 -19.36779  -9.87814  -7.57135  -7.57112
 Alpha  occ. eigenvalues --   -7.57083  -3.43652  -3.43650  -3.43625  -3.43607
 Alpha  occ. eigenvalues --   -3.43604  -1.28154  -1.08605  -1.06009  -0.71836
 Alpha  occ. eigenvalues --   -0.57199  -0.55794  -0.54958  -0.53689  -0.53043
 Alpha  occ. eigenvalues --   -0.50486  -0.39155
 Alpha virt. eigenvalues --    0.03588   0.04631   0.08730   0.09487   0.10199
 Alpha virt. eigenvalues --    0.12075   0.12738   0.16764   0.17281   0.18044
 Alpha virt. eigenvalues --    0.18812   0.19354   0.20650   0.21624   0.22824

 Mulliken atomic charges:
              1
     1  O   -0.234154
     2  O   -0.237592
     3  H    0.226072
     4  H    0.228748
     5  Kr   0.016926
 Sum of Mulliken atomic charges =   0.00000

 Dipole moment (field-independent basis, Debye):
    X=             -3.7198    Y=             -0.0118    Z=              0.2252  Tot=              3.7266
 Quadrupole moment (field-independent basis, Debye-Ang):
   XX=            -38.7910   YY=            -28.1524   ZZ=            -30.4820
   XY=             -0.0342   XZ=              0.2465   YZ=             -0.3036

 SCF Done:  E(RwB97XD) =  -2905.42805406     A.U. after    9 cycles
 SCF Done:  E(RwB97XD) =  -2905.42981330     A.U. after    9 cycles
 SCF Done:  E(RwB97XD) =  -2905.43094474     A.U. after    9 cycles
 SCF Done:  E(RwB97XD) =  -2905.43162767     A.U. after    9 cycles
 SCF Done:  E(RwB97XD) =  -2905.43200543     A.U. after    9 cycles
 SCF Done:  E(RwB97XD) =  -2905.43216639     A.U. after    9 cycles
 SCF Done:  E(RwB97XD) =  -2905.43218799     A.U. after    8 cycles
 SCF Done:  E(RwB97XD) =  -2905.43211973     A.U. after    8 cycles
 SCF Done:  E(RwB97XD) =  -2905.43198920     A.U. after    8 cycles
 SCF Done:  E(RwB97XD) =  -2905.43164908     A.U. after    8 cycles
 SCF Done:  E(RwB97XD) =  -2905.43146944     A.U. after    7 cycles
 SCF Done:  E(RwB97XD) =  -2905.43129127     A.U. after    8 cycles
 SCF Done:  E(RwB97XD) =  -2905.43113051     A.U. after    7 cycles
 SCF Done:  E(RwB97XD) =  -2905.43098140     A.U. after    7 cycles
 SCF Done:  E(RwB97XD) =  -2905.43084613     A.U. after    7 cycles
 SCF Done:  E(RwB97XD) =  -2905.43072763     A.U. after    7 cycles
 SCF Done:  E(RwB97XD) =  -2905.43062412     A.U. after    7 cycles
 SCF Done:  E(RwB97XD) =  -2905.43053234     A.U. after    7 cycles

                         Standard orientation:
 ---------------------------------------------------------------------
 Center     Atomic      Atomic             Coordinates (Angstroms)
 Number     Number       Type             X           Y           Z
 ---------------------------------------------------------------------
      1          8           0        3.367132   -0.724620   -0.018811
      2          8           0        3.367057    0.725204    0.003769
      3          1           0        2.462602   -1.025644    0.137283
      4          1           0        2.448321    1.023611    0.009663
      5         36           0       -1.632901   -0.000073   -0.000739
 ---------------------------------------------------------------------

 SCF Done:  E(RwB97XD) =  -2905.43045284     A.U. after    7 cycles
 Normal termination of Gaussian 09 at Fri Jan 17 14:10:32 2020.
