 Gaussian 09, Revision C.01,
 Gaussian 09:  EM64L-G09RevC.01 23-Sep-2011

 ----------------------------------------------------------------------
 #p wb97xd/aug-cc-PVTz iop(3/107=0250000000) iop(3/108=0250000000) int=
 ultrafine
 ----------------------------------------------------------------------

 (Enter /home/matheus/.gaussian/g09/l101.exe)
 ---
 TCC
 ---
 Charge =  0 Multiplicity = 1

                         Standard orientation:
 ---------------------------------------------------------------------
 Center     Atomic      Atomic             Coordinates (Angstroms)
 Number     Number       Type             X           Y           Z
 ---------------------------------------------------------------------
      1          8           0        0.000000    0.725000  -10.034027
      2          8           0        0.000000   -0.725000  -10.034027
      3          1           0        0.000000    1.023510   -9.115306
      4          1           0        0.000000   -1.023510   -9.115306
      5         36           0        0.000000    0.000000    4.965973
 ---------------------------------------------------------------------

 SCF Done:  E(RwB97XD) =  -2905.42233835     A.U. after   11 cycles

 The electronic state is 1-A1.
 Alpha  occ. eigenvalues -- -513.08131 -67.34996 -60.89860 -60.89860 -60.89860
 Alpha  occ. eigenvalues --  -19.34339 -19.34335  -9.80345  -7.49643  -7.49642
 Alpha  occ. eigenvalues --   -7.49642  -3.36327  -3.36327  -3.36327  -3.36327
 Alpha  occ. eigenvalues --   -3.36327  -1.25195  -1.03428  -1.00998  -0.69489
 Alpha  occ. eigenvalues --   -0.54339  -0.52272  -0.49870  -0.48434  -0.48433
 Alpha  occ. eigenvalues --   -0.48433  -0.37270
 Alpha virt. eigenvalues --    0.02516   0.04011   0.09322   0.09346   0.10679
 Alpha virt. eigenvalues --    0.10693   0.10693   0.11322   0.15905   0.16422
 Alpha virt. eigenvalues --    0.16816   0.19255   0.19272   0.20274   0.24413

 Mulliken atomic charges:
              1
     1  O   -0.198135
     2  O   -0.198135
     3  H    0.198135
     4  H    0.198135
     5  Kr   0.000000
 Sum of Mulliken atomic charges =   0.00000

 Dipole moment (field-independent basis, Debye):
    X=              0.0000    Y=              0.0000    Z=              3.1068  Tot=              3.1068
 Quadrupole moment (field-independent basis, Debye-Ang):
   XX=            -30.7576   YY=            -28.1948   ZZ=            -88.6140
   XY=              0.0000   XZ=              0.0000   YZ=              0.0000

 Normal termination of Gaussian 09 at Thu Mar 19 09:33:01 2020.
