 Gaussian 09, Revision C.01,
 Gaussian 09:  EM64L-G09RevC.01 23-Sep-2011

 --------------------------------
 #p mp4/aug-cc-PVTz int=ultrafine
 --------------------------------

 (Enter /home/matheus/.gaussian/g09/l101.exe)
 ----
 PTCC
 ----
 Charge =  0 Multiplicity = 1

                         Standard orientation:
 ---------------------------------------------------------------------
 Center     Atomic      Atomic             Coordinates (Angstroms)
 Number     Number       Type             X           Y           Z
 ---------------------------------------------------------------------
      1          8           0        0.000000    0.725000   -5.367360
      2          8           0        0.000000   -0.725000   -5.367360
      3          1           0        0.000000    1.023510   -4.448639
      4          1           0        0.000000   -1.023510   -4.448639
      5         36           0        0.000000    0.000000    2.632640
 ---------------------------------------------------------------------

 SCF Done:  E(RHF) =  -2902.87986784     A.U. after   12 cycles
 E2 =    -0.7494772339D+00 EUMP2 =    -0.29036293450741D+04

 The electronic state is 1-A1.
 Alpha  occ. eigenvalues -- -520.17173 -69.90916 -63.01573 -63.01572 -63.01572
 Alpha  occ. eigenvalues --  -20.63482 -20.63454 -10.85574  -8.33774  -8.33773
 Alpha  occ. eigenvalues --   -8.33773  -3.83151  -3.83151  -3.83150  -3.83149
 Alpha  occ. eigenvalues --   -3.83149  -1.47333  -1.22051  -1.15938  -0.77059
 Alpha  occ. eigenvalues --   -0.63033  -0.59944  -0.58039  -0.53067  -0.53050
 Alpha  occ. eigenvalues --   -0.53049  -0.46239
 Alpha virt. eigenvalues --    0.02464   0.04115   0.09855   0.10033   0.10050
 Alpha virt. eigenvalues --    0.10396   0.12549   0.14361   0.15923   0.16575
 Alpha virt. eigenvalues --    0.18307   0.19497   0.20061   0.24937   0.27712

 Mulliken atomic charges:
              1
     1  O   -0.241432
     2  O   -0.241432
     3  H    0.241405
     4  H    0.241405
     5  Kr   0.000054
 Sum of Mulliken atomic charges =   0.00000

 Dipole moment (field-independent basis, Debye):
    X=              0.0000    Y=              0.0000    Z=              3.3057  Tot=              3.3057
 Quadrupole moment (field-independent basis, Debye-Ang):
   XX=            -30.6123   YY=            -28.1891   ZZ=            -61.1463
   XY=              0.0000   XZ=              0.0000   YZ=              0.0000

 Normal termination of Gaussian 09 at Sun Oct 27 21:11:40 2019.
