 Gaussian 09, Revision C.01,
 Gaussian 09:  EM64L-G09RevC.01 23-Sep-2011

 -------------------------------------
 #p mp4/aug-cc-PVTz int=ultrafine Scan
 -------------------------------------

 (Enter /home/matheus/.gaussian/g09/l101.exe)
 ----
 PTCC
 ----
 Charge =  0 Multiplicity = 1

 SCF Done:  E(RHF) =  -2902.86852753     A.U. after   12 cycles
 E2 =    -0.7596267801D+00 EUMP2 =    -0.29036281543103D+04

 The electronic state is 1-A.
 Alpha  occ. eigenvalues -- -520.20549 -69.94307 -63.04964 -63.04963 -63.04961
 Alpha  occ. eigenvalues --  -20.62531 -20.62498 -10.88973  -8.37189  -8.37175
 Alpha  occ. eigenvalues --   -8.37158  -3.86564  -3.86563  -3.86543  -3.86535
 Alpha  occ. eigenvalues --   -3.86531  -1.46675  -1.21400  -1.19706  -0.77020
 Alpha  occ. eigenvalues --   -0.62593  -0.59862  -0.59033  -0.56281  -0.55767
 Alpha  occ. eigenvalues --   -0.54941  -0.45498
 Alpha virt. eigenvalues --    0.03642   0.04617   0.08504   0.09253   0.11298
 Alpha virt. eigenvalues --    0.13550   0.14747   0.17493   0.18171   0.18812
 Alpha virt. eigenvalues --    0.19607   0.19873   0.23841   0.25392   0.25717

 Mulliken atomic charges:
              1
     1  O   -0.268066
     2  O   -0.271600
     3  H    0.261690
     4  H    0.263792
     5  Kr   0.014184
 Sum of Mulliken atomic charges =   0.00000

 Dipole moment (field-independent basis, Debye):
    X=             -3.7935    Y=             -0.0113    Z=              0.2382  Tot=              3.8010
 Quadrupole moment (field-independent basis, Debye-Ang):
   XX=            -39.2532   YY=            -28.1001   ZZ=            -30.3325
   XY=             -0.0344   XZ=              0.2671   YZ=             -0.3156

 SCF Done:  E(RHF) =  -2902.87210843     A.U. after   10 cycles
 E2 =    -0.7581599391D+00 EUMP2 =    -0.29036302683667D+04
 SCF Done:  E(RHF) =  -2902.87466064     A.U. after    9 cycles
 E2 =    -0.7569067880D+00 EUMP2 =    -0.29036315674318D+04
 SCF Done:  E(RHF) =  -2902.87646555     A.U. after    9 cycles
 E2 =    -0.7558311985D+00 EUMP2 =    -0.29036322967436D+04
 SCF Done:  E(RHF) =  -2902.87773077     A.U. after    9 cycles
 E2 =    -0.7549051135D+00 EUMP2 =    -0.29036326358859D+04
 SCF Done:  E(RHF) =  -2902.87860860     A.U. after    9 cycles
 E2 =    -0.7541075002D+00 EUMP2 =    -0.29036327160975D+04
 SCF Done:  E(RHF) =  -2902.87921005     A.U. after    9 cycles
 E2 =    -0.7534223782D+00 EUMP2 =    -0.29036326324317D+04
 SCF Done:  E(RHF) =  -2902.87961573     A.U. after    8 cycles
 E2 =    -0.7528367740D+00 EUMP2 =    -0.29036324525005D+04
 SCF Done:  E(RHF) =  -2902.87988389     A.U. after    8 cycles
 E2 =    -0.7523392704D+00 EUMP2 =    -0.29036322231580D+04
 SCF Done:  E(RHF) =  -2902.88005652     A.U. after    8 cycles
 E2 =    -0.7519191009D+00 EUMP2 =    -0.29036319756225D+04
 E2 =    -0.7515659370D+00 EUMP2 =    -0.29036317296623D+04
 SCF Done:  E(RHF) =  -2902.88022689     A.U. after    8 cycles
 E2 =    -0.7512699495D+00 EUMP2 =    -0.29036314968353D+04
 SCF Done:  E(RHF) =  -2902.88026099     A.U. after    8 cycles
 E2 =    -0.7510220249D+00 EUMP2 =    -0.29036312830146D+04
 SCF Done:  E(RHF) =  -2902.88027633     A.U. after    8 cycles
 E2 =    -0.7508139891D+00 EUMP2 =    -0.29036310903161D+04
 SCF Done:  E(RHF) =  -2902.88027979     A.U. after    7 cycles
 E2 =    -0.7506387643D+00 EUMP2 =    -0.29036309185541D+04
 SCF Done:  E(RHF) =  -2902.88027589     A.U. after    7 cycles
 E2 =    -0.7504904463D+00 EUMP2 =    -0.29036307663369D+04
 SCF Done:  E(RHF) =  -2902.88026755     A.U. after    7 cycles
 E2 =    -0.7503642293D+00 EUMP2 =    -0.29036306317830D+04
 SCF Done:  E(RHF) =  -2902.88025670     A.U. after    6 cycles
 E2 =    -0.7502562802D+00 EUMP2 =    -0.29036305129800D+04
 SCF Done:  E(RHF) =  -2902.88024463     A.U. after    6 cycles
 E2 =    -0.7501635367D+00 EUMP2 =    -0.29036304081707D+04
 SCF Done:  E(RHF) =  -2902.88023226     A.U. after    6 cycles
 E2 =    -0.7500834993D+00 EUMP2 =    -0.29036303157628D+04

                         Standard orientation:
 ---------------------------------------------------------------------
 Center     Atomic      Atomic             Coordinates (Angstroms)
 Number     Number       Type             X           Y           Z
 ---------------------------------------------------------------------
      1          8           0        3.367132   -0.724620   -0.018811
      2          8           0        3.367057    0.725204    0.003769
      3          1           0        2.462602   -1.025644    0.137283
      4          1           0        2.448321    1.023611    0.009663
      5         36           0       -1.632901   -0.000073   -0.000739
 ---------------------------------------------------------------------

 SCF Done:  E(RHF) =  -2902.88022020     A.U. after    6 cycles
 E2 =    -0.7500140794D+00 EUMP2 =    -0.29036302342835D+04
 Normal termination of Gaussian 09 at Sat Nov 16 15:24:54 2019.
