 Gaussian 09, Revision C.01,
 Gaussian 09:  EM64L-G09RevC.01 23-Sep-2011

 -------------------------------------
 #p mp4/aug-cc-PVTz int=ultrafine Scan
 -------------------------------------

 (Enter /home/matheus/.gaussian/g09/l101.exe)
 ----
 PTCC
 ----
 Charge =  0 Multiplicity = 1

 SCF Done:  E(RHF) =  -2902.87299986     A.U. after   13 cycles
 E2 =    -0.7584896745D+00 EUMP2 =    -0.29036314895301D+04

 The electronic state is 1-A.
 Alpha  occ. eigenvalues -- -520.19638 -69.93395 -63.04052 -63.04051 -63.04048
 Alpha  occ. eigenvalues --  -20.62883 -20.62696 -10.88061  -8.36277  -8.36264
 Alpha  occ. eigenvalues --   -8.36245  -3.85656  -3.85654  -3.85632  -3.85621
 Alpha  occ. eigenvalues --   -3.85616  -1.46822  -1.21616  -1.18731  -0.76433
 Alpha  occ. eigenvalues --   -0.64955  -0.59958  -0.57018  -0.55515  -0.54947
 Alpha  occ. eigenvalues --   -0.53844  -0.46508
 Alpha virt. eigenvalues --    0.03573   0.04588   0.08540   0.09437   0.11454
 Alpha virt. eigenvalues --    0.13364   0.14453   0.15940   0.18226   0.18922
 Alpha virt. eigenvalues --    0.19276   0.20872   0.22668   0.25893   0.26184

 Mulliken atomic charges:
              1
     1  O   -0.261586
     2  O   -0.285954
     3  H    0.260691
     4  H    0.273832
     5  Kr   0.013018
 Sum of Mulliken atomic charges =   0.00000

 Dipole moment (field-independent basis, Debye):
    X=              3.2698    Y=             -0.1485    Z=              0.9260  Tot=              3.4016
 Quadrupole moment (field-independent basis, Debye-Ang):
   XX=            -38.7097   YY=            -27.9765   ZZ=            -29.7268
   XY=              0.5426   XZ=             -1.2426   YZ=             -1.2030

 SCF Done:  E(RHF) =  -2902.87606061     A.U. after    9 cycles
 E2 =    -0.7572052881D+00 EUMP2 =    -0.29036332659020D+04
 SCF Done:  E(RHF) =  -2902.87824479     A.U. after    9 cycles
 E2 =    -0.7561093232D+00 EUMP2 =    -0.29036343541153D+04
 SCF Done:  E(RHF) =  -2902.87979371     A.U. after    9 cycles
 E2 =    -0.7551703510D+00 EUMP2 =    -0.29036349640608D+04
 SCF Done:  E(RHF) =  -2902.88088452     A.U. after    9 cycles
 E2 =    -0.7543641097D+00 EUMP2 =    -0.29036352486278D+04
 SCF Done:  E(RHF) =  -2902.88164648     A.U. after    9 cycles
 E2 =    -0.7536720930D+00 EUMP2 =    -0.29036353185762D+04
 SCF Done:  E(RHF) =  -2902.88217350     A.U. after    9 cycles
 E2 =    -0.7530797401D+00 EUMP2 =    -0.29036352532392D+04
 SCF Done:  E(RHF) =  -2902.88253356     A.U. after    8 cycles
 E2 =    -0.7525748121D+00 EUMP2 =    -0.29036351083715D+04
 SCF Done:  E(RHF) =  -2902.88277580     A.U. after    8 cycles
 E2 =    -0.7521463558D+00 EUMP2 =    -0.29036349221512D+04
 SCF Done:  E(RHF) =  -2902.88293562     A.U. after    8 cycles
 E2 =    -0.7517841767D+00 EUMP2 =    -0.29036347197953D+04
 E2 =    -0.7514787715D+00 EUMP2 =    -0.29036345172074D+04
 SCF Done:  E(RHF) =  -2902.88310233     A.U. after    8 cycles
 E2 =    -0.7512214200D+00 EUMP2 =    -0.29036343237537D+04
 SCF Done:  E(RHF) =  -2902.88314004     A.U. after    8 cycles
 E2 =    -0.7510043234D+00 EUMP2 =    -0.29036341443624D+04
 SCF Done:  E(RHF) =  -2902.88316038     A.U. after    8 cycles
 E2 =    -0.7508206974D+00 EUMP2 =    -0.29036339810757D+04
 SCF Done:  E(RHF) =  -2902.88316938     A.U. after    8 cycles
 E2 =    -0.7506647976D+00 EUMP2 =    -0.29036338341769D+04
 SCF Done:  E(RHF) =  -2902.88317111     A.U. after    7 cycles
 E2 =    -0.7505318645D+00 EUMP2 =    -0.29036337029744D+04
 SCF Done:  E(RHF) =  -2902.88316830     A.U. after    7 cycles
 E2 =    -0.7504180187D+00 EUMP2 =    -0.29036335863228D+04
 SCF Done:  E(RHF) =  -2902.88316281     A.U. after    7 cycles
 E2 =    -0.7503200971D+00 EUMP2 =    -0.29036334829059D+04
 SCF Done:  E(RHF) =  -2902.88315588     A.U. after    7 cycles
 E2 =    -0.7502355101D+00 EUMP2 =    -0.29036333913883D+04
 SCF Done:  E(RHF) =  -2902.88314836     A.U. after    7 cycles
 E2 =    -0.7501621083D+00 EUMP2 =    -0.29036333104641D+04

                         Standard orientation:
 ---------------------------------------------------------------------
 Center     Atomic      Atomic             Coordinates (Angstroms)
 Number     Number       Type             X           Y           Z
 ---------------------------------------------------------------------
      1          8           0       -3.363848   -0.719340   -0.071712
      2          8           0       -3.362692    0.728134    0.013834
      3          1           0       -2.663514   -1.052953    0.503953
      4          1           0       -2.443747    1.025099    0.036368
      5         36           0        1.636655   -0.001181   -0.002147
 ---------------------------------------------------------------------

 SCF Done:  E(RHF) =  -2902.88314078     A.U. after    7 cycles
 E2 =    -0.7500980888D+00 EUMP2 =    -0.29036332388736D+04
 Normal termination of Gaussian 09 at Tue Dec 17 13:41:49 2019.
