 Gaussian 09, Revision C.01,
 Gaussian 09:  EM64L-G09RevC.01 23-Sep-2011

 -------------------------------------
 #p mp4/aug-cc-PVTz int=ultrafine Scan
 -------------------------------------

 (Enter /home/matheus/.gaussian/g09/l101.exe)
 ----
 PTCC
 ----
 Charge =  0 Multiplicity = 1

 SCF Done:  E(RHF) =  -2902.86961600     A.U. after   12 cycles
 E2 =    -0.7593255692D+00 EUMP2 =    -0.29036289415647D+04

 The electronic state is 1-A.
 Alpha  occ. eigenvalues -- -520.20332 -69.94090 -63.04746 -63.04746 -63.04743
 Alpha  occ. eigenvalues --  -20.62625 -20.62554 -10.88755  -8.36971  -8.36958
 Alpha  occ. eigenvalues --   -8.36940  -3.86347  -3.86346  -3.86325  -3.86318
 Alpha  occ. eigenvalues --   -3.86313  -1.46719  -1.21457  -1.19472  -0.76900
 Alpha  occ. eigenvalues --   -0.63246  -0.59878  -0.58460  -0.56107  -0.55577
 Alpha  occ. eigenvalues --   -0.54704  -0.45723
 Alpha virt. eigenvalues --    0.03630   0.04615   0.08504   0.09296   0.11337
 Alpha virt. eigenvalues --    0.13587   0.14623   0.16806   0.18198   0.18928
 Alpha virt. eigenvalues --    0.19541   0.20236   0.23350   0.25610   0.25826

 Mulliken atomic charges:
              1
     1  O   -0.264581
     2  O   -0.276067
     3  H    0.259933
     4  H    0.266854
     5  Kr   0.013863
 Sum of Mulliken atomic charges =   0.00000

 Dipole moment (field-independent basis, Debye):
    X=              3.6767    Y=             -0.0432    Z=              0.4748  Tot=              3.7075
 Quadrupole moment (field-independent basis, Debye-Ang):
   XX=            -39.1582   YY=            -28.0719   ZZ=            -30.1961
   XY=              0.1372   XZ=             -0.5532   YZ=             -0.6258

 SCF Done:  E(RHF) =  -2902.87305528     A.U. after   10 cycles
 E2 =    -0.7579069317D+00 EUMP2 =    -0.29036309622133D+04
 SCF Done:  E(RHF) =  -2902.87550766     A.U. after   10 cycles
 E2 =    -0.7566950957D+00 EUMP2 =    -0.29036322027533D+04
 SCF Done:  E(RHF) =  -2902.87724337     A.U. after    9 cycles
 E2 =    -0.7556550950D+00 EUMP2 =    -0.29036328984628D+04
 SCF Done:  E(RHF) =  -2902.87846163     A.U. after    9 cycles
 E2 =    -0.7547600419D+00 EUMP2 =    -0.29036332216752D+04
 SCF Done:  E(RHF) =  -2902.87930839     A.U. after    9 cycles
 E2 =    -0.7539897762D+00 EUMP2 =    -0.29036332981633D+04
 SCF Done:  E(RHF) =  -2902.87988995     A.U. after    9 cycles
 E2 =    -0.7533288573D+00 EUMP2 =    -0.29036332188053D+04
 SCF Done:  E(RHF) =  -2902.88028345     A.U. after    9 cycles
 E2 =    -0.7527645818D+00 EUMP2 =    -0.29036330480362D+04
 SCF Done:  E(RHF) =  -2902.88054470     A.U. after    8 cycles
 E2 =    -0.7522855964D+00 EUMP2 =    -0.29036328302966D+04
 SCF Done:  E(RHF) =  -2902.88071391     A.U. after    8 cycles
 E2 =    -0.7518812240D+00 EUMP2 =    -0.29036325951367D+04
 E2 =    -0.7515412349D+00 EUMP2 =    -0.29036323611834D+04
 SCF Done:  E(RHF) =  -2902.88088332     A.U. after    8 cycles
 E2 =    -0.7512559897D+00 EUMP2 =    -0.29036321393137D+04
 SCF Done:  E(RHF) =  -2902.88091842     A.U. after    8 cycles
 E2 =    -0.7510166448D+00 EUMP2 =    -0.29036319350646D+04
 SCF Done:  E(RHF) =  -2902.88093512     A.U. after    8 cycles
 E2 =    -0.7508153508D+00 EUMP2 =    -0.29036317504705D+04
 SCF Done:  E(RHF) =  -2902.88094006     A.U. after    8 cycles
 E2 =    -0.7506453793D+00 EUMP2 =    -0.29036315854440D+04
 SCF Done:  E(RHF) =  -2902.88093763     A.U. after    7 cycles
 E2 =    -0.7505011445D+00 EUMP2 =    -0.29036314387794D+04
 SCF Done:  E(RHF) =  -2902.88093070     A.U. after    7 cycles
 E2 =    -0.7503781375D+00 EUMP2 =    -0.29036313088413D+04
 SCF Done:  E(RHF) =  -2902.88092119     A.U. after    7 cycles
 E2 =    -0.7502727439D+00 EUMP2 =    -0.29036311939300D+04
 SCF Done:  E(RHF) =  -2902.88091039     A.U. after    6 cycles
 E2 =    -0.7501820605D+00 EUMP2 =    -0.29036310924533D+04
 SCF Done:  E(RHF) =  -2902.88089923     A.U. after    6 cycles
 E2 =    -0.7501036939D+00 EUMP2 =    -0.29036310029250D+04

                         Standard orientation:
 ---------------------------------------------------------------------
 Center     Atomic      Atomic             Coordinates (Angstroms)
 Number     Number       Type             X           Y           Z
 ---------------------------------------------------------------------
      1          8           0       -3.366455   -0.723500   -0.037290
      2          8           0       -3.366156    0.725811    0.007420
      3          1           0       -2.504059   -1.031807    0.269915
      4          1           0       -2.447377    1.023913    0.019113
      5         36           0        1.633676   -0.000294   -0.001391
 ---------------------------------------------------------------------

 SCF Done:  E(RHF) =  -2902.88088831     A.U. after    6 cycles
 E2 =    -0.7500356354D+00 EUMP2 =    -0.29036309239412D+04
 Normal termination of Gaussian 09 at Thu Dec 19 01:11:21 2019.
