 Gaussian 09, Revision C.01,
 Gaussian 09:  EM64L-G09RevC.01 23-Sep-2011

 -------------------------------------
 #p mp4/aug-cc-PVTz int=ultrafine Scan
 -------------------------------------

 (Enter /home/matheus/.gaussian/g09/l101.exe)
 ----
 PTCC
 ----
 Charge =  0 Multiplicity = 1

 SCF Done:  E(RHF) =  -2902.87782189     A.U. after   13 cycles
 E2 =    -0.7561760460D+00 EUMP2 =    -0.29036339979388D+04

 The electronic state is 1-A.
 Alpha  occ. eigenvalues -- -520.17310 -69.91064 -63.01723 -63.01720 -63.01717
 Alpha  occ. eigenvalues --  -20.62739 -20.62406 -10.85728  -8.33952  -8.33925
 Alpha  occ. eigenvalues --   -8.33910  -3.83332  -3.83326  -3.83305  -3.83278
 Alpha  occ. eigenvalues --   -3.83274  -1.46473  -1.21697  -1.16313  -0.71342
 Alpha  occ. eigenvalues --   -0.70575  -0.61877  -0.54280  -0.53222  -0.52806
 Alpha  occ. eigenvalues --   -0.51572  -0.46118
 Alpha virt. eigenvalues --    0.03575   0.04508   0.08896   0.10468   0.11467
 Alpha virt. eigenvalues --    0.12479   0.15287   0.16146   0.17252   0.18226
 Alpha virt. eigenvalues --    0.19516   0.21312   0.24537   0.25925   0.26682

 Mulliken atomic charges:
              1
     1  O   -0.253621
     2  O   -0.309980
     3  H    0.262342
     4  H    0.290275
     5  Kr   0.010984
 Sum of Mulliken atomic charges =   0.00000

 Dipole moment (field-independent basis, Debye):
    X=             -0.3483    Y=             -0.3009    Z=              0.8243  Tot=              0.9441
 Quadrupole moment (field-independent basis, Debye-Ang):
   XX=            -27.4809   YY=            -28.2311   ZZ=            -30.1238
   XY=             -3.8630   XZ=              2.5177   YZ=             -0.8824

 SCF Done:  E(RHF) =  -2902.88023609     A.U. after    9 cycles
 E2 =    -0.7550814448D+00 EUMP2 =    -0.29036353175387D+04
 SCF Done:  E(RHF) =  -2902.88194916     A.U. after    9 cycles
 E2 =    -0.7541510906D+00 EUMP2 =    -0.29036361002465D+04
 SCF Done:  E(RHF) =  -2902.88315819     A.U. after    9 cycles
 E2 =    -0.7533563962D+00 EUMP2 =    -0.29036365145851D+04
 SCF Done:  E(RHF) =  -2902.88400661     A.U. after    9 cycles
 E2 =    -0.7526752992D+00 EUMP2 =    -0.29036366819047D+04
 SCF Done:  E(RHF) =  -2902.88459813     A.U. after    9 cycles
 E2 =    -0.7520911678D+00 EUMP2 =    -0.29036366892961D+04
 SCF Done:  E(RHF) =  -2902.88500742     A.U. after    9 cycles
 E2 =    -0.7515912117D+00 EUMP2 =    -0.29036365986304D+04
 SCF Done:  E(RHF) =  -2902.88528805     A.U. after    8 cycles
 E2 =    -0.7511649706D+00 EUMP2 =    -0.29036364530230D+04
 SCF Done:  E(RHF) =  -2902.88547841     A.U. after    8 cycles
 E2 =    -0.7508032506D+00 EUMP2 =    -0.29036362816571D+04
 SCF Done:  E(RHF) =  -2902.88560593     A.U. after    8 cycles
 E2 =    -0.7504975841D+00 EUMP2 =    -0.29036361035139D+04
 E2 =    -0.7502400509D+00 EUMP2 =    -0.29036359302422D+04
 SCF Done:  E(RHF) =  -2902.88574504     A.U. after    8 cycles
 E2 =    -0.7500233128D+00 EUMP2 =    -0.29036357683542D+04
 SCF Done:  E(RHF) =  -2902.88578016     A.U. after    8 cycles
 E2 =    -0.7498407231D+00 EUMP2 =    -0.29036356208827D+04
 SCF Done:  E(RHF) =  -2902.88580218     A.U. after    8 cycles
 E2 =    -0.7496864292D+00 EUMP2 =    -0.29036354886135D+04
 SCF Done:  E(RHF) =  -2902.88581557     A.U. after    8 cycles
 E2 =    -0.7495554324D+00 EUMP2 =    -0.29036353709998D+04
 SCF Done:  E(RHF) =  -2902.88582324     A.U. after    8 cycles
 E2 =    -0.7494435862D+00 EUMP2 =    -0.29036352668257D+04
 SCF Done:  E(RHF) =  -2902.88582712     A.U. after    8 cycles
 E2 =    -0.7493475358D+00 EUMP2 =    -0.29036351746561D+04
 SCF Done:  E(RHF) =  -2902.88582849     A.U. after    8 cycles
 E2 =    -0.7492646073D+00 EUMP2 =    -0.29036350931006D+04
 SCF Done:  E(RHF) =  -2902.88582825     A.U. after    8 cycles
 E2 =    -0.7491926708D+00 EUMP2 =    -0.29036350209222D+04
 SCF Done:  E(RHF) =  -2902.88582704     A.U. after    8 cycles
 E2 =    -0.7491300058D+00 EUMP2 =    -0.29036349570414D+04

                         Standard orientation:
 ---------------------------------------------------------------------
 Center     Atomic      Atomic             Coordinates (Angstroms)
 Number     Number       Type             X           Y           Z
 ---------------------------------------------------------------------
      1          8           0        3.339822   -0.702772   -0.060896
      2          8           0        3.331040    0.745769    0.003540
      3          1           0        4.140141   -1.016340    0.379923
      4          1           0        2.410546    1.038162    0.022364
      5         36           0       -1.664377   -0.010161    0.001571
 ---------------------------------------------------------------------

 SCF Done:  E(RHF) =  -2902.88582530     A.U. after    7 cycles
 E2 =    -0.7490751861D+00 EUMP2 =    -0.29036349004893D+04
 Normal termination of Gaussian 09 at Sun Dec  8 13:12:36 2019.
