 Gaussian 09, Revision C.01,
 Gaussian 09:  EM64L-G09RevC.01 23-Sep-2011

 -------------------------------------
 #p mp4/aug-cc-PVTz int=ultrafine Scan
 -------------------------------------

 (Enter /home/matheus/.gaussian/g09/l101.exe)
 ----
 PTCC
 ----
 Charge =  0 Multiplicity = 1

 SCF Done:  E(RHF) =  -2902.86813670     A.U. after   12 cycles
 E2 =    -0.7597381947D+00 EUMP2 =    -0.29036278748924D+04

 The electronic state is 1-A1.
 Alpha  occ. eigenvalues -- -520.20627 -69.94385 -63.05041 -63.05041 -63.05039
 Alpha  occ. eigenvalues --  -20.62501 -20.62473 -10.89050  -8.37266  -8.37252
 Alpha  occ. eigenvalues --   -8.37235  -3.86642  -3.86641  -3.86620  -3.86613
 Alpha  occ. eigenvalues --   -3.86609  -1.46658  -1.21379  -1.19789  -0.77061
 Alpha  occ. eigenvalues --   -0.62323  -0.59859  -0.59274  -0.56342  -0.55834
 Alpha  occ. eigenvalues --   -0.55023  -0.45420
 Alpha virt. eigenvalues --    0.03645   0.04616   0.08505   0.09238   0.11284
 Alpha virt. eigenvalues --    0.13523   0.14797   0.18038   0.18113   0.18580
 Alpha virt. eigenvalues --    0.19586   0.19749   0.24103   0.25257   0.25678

 Mulliken atomic charges:
              1
     1  O   -0.269746
     2  O   -0.269746
     3  H    0.262595
     4  H    0.262595
     5  Kr   0.014302
 Sum of Mulliken atomic charges =   0.00000

 Dipole moment (field-independent basis, Debye):
    X=              0.0000    Y=              0.0000    Z=              3.8342  Tot=              3.8342
 Quadrupole moment (field-independent basis, Debye-Ang):
   XX=            -30.3797   YY=            -28.1099   ZZ=            -39.2833
   XY=              0.0000   XZ=              0.0000   YZ=              0.0000

 SCF Done:  E(RHF) =  -2902.87177075     A.U. after    9 cycles
 E2 =    -0.7582536315D+00 EUMP2 =    -0.29036300243848D+04
 SCF Done:  E(RHF) =  -2902.87436038     A.U. after    9 cycles
 E2 =    -0.7569853272D+00 EUMP2 =    -0.29036313457094D+04
 SCF Done:  E(RHF) =  -2902.87619118     A.U. after    9 cycles
 E2 =    -0.7558966906D+00 EUMP2 =    -0.29036320878701D+04
 SCF Done:  E(RHF) =  -2902.87747397     A.U. after    9 cycles
 E2 =    -0.7549592368D+00 EUMP2 =    -0.29036324332045D+04
 SCF Done:  E(RHF) =  -2902.87836340     A.U. after    9 cycles
 E2 =    -0.7541515972D+00 EUMP2 =    -0.29036325150010D+04
 SCF Done:  E(RHF) =  -2902.87897229     A.U. after    8 cycles
 E2 =    -0.7534575679D+00 EUMP2 =    -0.29036324298613D+04
 SCF Done:  E(RHF) =  -2902.87938252     A.U. after    8 cycles
 E2 =    -0.7528640893D+00 EUMP2 =    -0.29036322466052D+04
 SCF Done:  E(RHF) =  -2902.87965327     A.U. after    8 cycles
 E2 =    -0.7523596834D+00 EUMP2 =    -0.29036320129538D+04
 SCF Done:  E(RHF) =  -2902.87982720     A.U. after    8 cycles
 E2 =    -0.7519335887D+00 EUMP2 =    -0.29036317607868D+04
 E2 =    -0.7515754529D+00 EUMP2 =    -0.29036315103090D+04
 E2 =    -0.7512753914D+00 EUMP2 =    -0.29036312733452D+04
 E2 =    -0.7510242030D+00 EUMP2 =    -0.29036310559042D+04
 E2 =    -0.7508136020D+00 EUMP2 =    -0.29036308601420D+04
 E2 =    -0.7506363870D+00 EUMP2 =    -0.29036306858455D+04
 E2 =    -0.7504865311D+00 EUMP2 =    -0.29036305315521D+04
 E2 =    -0.7503591195D+00 EUMP2 =    -0.29036303952920D+04
 E2 =    -0.7502502289D+00 EUMP2 =    -0.29036302750657D+04
 E2 =    -0.7501567344D+00 EUMP2 =    -0.29036301690488D+04
 E2 =    -0.7500760899D+00 EUMP2 =    -0.29036300756002D+04
 E2 =    -0.7496059815D+00 EUMP2 =    -0.29036295080633D+04
 E2 =    -0.7495888860D+00 EUMP2 =    -0.29036294870036D+04
 E2 =    -0.7495738907D+00 EUMP2 =    -0.29036294684667D+04
 E2 =    -0.7495607897D+00 EUMP2 =    -0.29036294521916D+04
 E2 =    -0.7495493639D+00 EUMP2 =    -0.29036294379082D+04
 E2 =    -0.7495394125D+00 EUMP2 =    -0.29036294253723D+04
 E2 =    -0.7495307409D+00 EUMP2 =    -0.29036294143555D+04
 E2 =    -0.7495231696D+00 EUMP2 =    -0.29036294046538D+04
 E2 =    -0.7495165374D+00 EUMP2 =    -0.29036293960880D+04
 E2 =    -0.7495107030D+00 EUMP2 =    -0.29036293885040D+04
 SCF Done:  E(RHF) =  -2902.87987622     A.U. after    5 cycles
 E2 =    -0.7495055445D+00 EUMP2 =    -0.29036293817691D+04
 SCF Done:  E(RHF) =  -2902.87987481     A.U. after    5 cycles
 E2 =    -0.7495009593D+00 EUMP2 =    -0.29036293757702D+04
 SCF Done:  E(RHF) =  -2902.87987355     A.U. after    5 cycles
 E2 =    -0.7494968617D+00 EUMP2 =    -0.29036293704103D+04
 SCF Done:  E(RHF) =  -2902.87987243     A.U. after    5 cycles
 E2 =    -0.7494931809D+00 EUMP2 =    -0.29036293656062D+04
 SCF Done:  E(RHF) =  -2902.87987143     A.U. after    5 cycles
 E2 =    -0.7494898592D+00 EUMP2 =    -0.29036293612865D+04
 SCF Done:  E(RHF) =  -2902.87987054     A.U. after    5 cycles
 E2 =    -0.7494868491D+00 EUMP2 =    -0.29036293573897D+04
 SCF Done:  E(RHF) =  -2902.87986975     A.U. after    5 cycles
 E2 =    -0.7494841117D+00 EUMP2 =    -0.29036293538628D+04
 SCF Done:  E(RHF) =  -2902.87986905     A.U. after    5 cycles
 E2 =    -0.7494816150D+00 EUMP2 =    -0.29036293506607D+04
 SCF Done:  E(RHF) =  -2902.87986841     A.U. after    5 cycles
 E2 =    -0.7494793322D+00 EUMP2 =    -0.29036293477444D+04

                         Standard orientation:
 ---------------------------------------------------------------------
 Center     Atomic      Atomic             Coordinates (Angstroms)
 Number     Number       Type             X           Y           Z
 ---------------------------------------------------------------------
      1          8           0        0.000000    0.725000   -5.367360
      2          8           0        0.000000   -0.725000   -5.367360
      3          1           0        0.000000    1.023510   -4.448639
      4          1           0        0.000000   -1.023510   -4.448639
      5         36           0        0.000000    0.000000    2.632640
 ---------------------------------------------------------------------

 SCF Done:  E(RHF) =  -2902.87986784     A.U. after    5 cycles
 E2 =    -0.7494772409D+00 EUMP2 =    -0.29036293450811D+04
 Normal termination of Gaussian 09 at Thu Nov 14 13:10:31 2019.
