 Gaussian 09, Revision C.01,
 Gaussian 09:  EM64L-G09RevC.01 23-Sep-2011

 -------------------------------------
 #p mp4/aug-cc-PVTz int=ultrafine Scan
 -------------------------------------

 (Enter /home/matheus/.gaussian/g09/l101.exe)
 ----
 PTCC
 ----
 Charge =  0 Multiplicity = 1

 SCF Done:  E(RHF) =  -2902.87976864     A.U. after   13 cycles
 E2 =    -0.7569475856D+00 EUMP2 =    -0.29036367162258D+04

 The electronic state is 1-A.
 Alpha  occ. eigenvalues -- -520.17610 -69.91366 -63.02024 -63.02022 -63.02018
 Alpha  occ. eigenvalues --  -20.62994 -20.62692 -10.86031  -8.34253  -8.34229
 Alpha  occ. eigenvalues --   -8.34212  -3.83634  -3.83629  -3.83606  -3.83581
 Alpha  occ. eigenvalues --   -3.83577  -1.46685  -1.21780  -1.16626  -0.72982
 Alpha  occ. eigenvalues --   -0.69952  -0.60755  -0.54218  -0.53561  -0.53038
 Alpha  occ. eigenvalues --   -0.50379  -0.48493
 Alpha virt. eigenvalues --    0.03475   0.04517   0.08894   0.10059   0.11622
 Alpha virt. eigenvalues --    0.12525   0.14682   0.15720   0.17576   0.18786
 Alpha virt. eigenvalues --    0.19069   0.21291   0.23195   0.25714   0.26743

 Mulliken atomic charges:
              1
     1  O   -0.259056
     2  O   -0.305962
     3  H    0.264796
     4  H    0.287636
     5  Kr   0.012586
 Sum of Mulliken atomic charges =   0.00000

 Dipole moment (field-independent basis, Debye):
    X=             -1.2098    Y=             -0.3897    Z=              1.5050  Tot=              1.9699
 Quadrupole moment (field-independent basis, Debye-Ang):
   XX=            -32.4270   YY=            -27.9248   ZZ=            -29.0645
   XY=             -3.0606   XZ=              3.8051   YZ=             -1.7724

 SCF Done:  E(RHF) =  -2902.88227235     A.U. after   10 cycles
 E2 =    -0.7558474066D+00 EUMP2 =    -0.29036381197581D+04
 SCF Done:  E(RHF) =  -2902.88405084     A.U. after   10 cycles
 E2 =    -0.7549109824D+00 EUMP2 =    -0.29036389618252D+04
 SCF Done:  E(RHF) =  -2902.88530771     A.U. after   10 cycles
 E2 =    -0.7541108025D+00 EUMP2 =    -0.29036394185145D+04
 SCF Done:  E(RHF) =  -2902.88619122     A.U. after   10 cycles
 E2 =    -0.7534251861D+00 EUMP2 =    -0.29036396164031D+04
 SCF Done:  E(RHF) =  -2902.88680861     A.U. after    9 cycles
 E2 =    -0.7528374312D+00 EUMP2 =    -0.29036396460426D+04
 SCF Done:  E(RHF) =  -2902.88723706     A.U. after    9 cycles
 E2 =    -0.7523344811D+00 EUMP2 =    -0.29036395715402D+04
 SCF Done:  E(RHF) =  -2902.88753187     A.U. after    8 cycles
 E2 =    -0.7519056124D+00 EUMP2 =    -0.29036394374813D+04
 SCF Done:  E(RHF) =  -2902.88773261     A.U. after    8 cycles
 E2 =    -0.7515414511D+00 EUMP2 =    -0.29036392740655D+04
 SCF Done:  E(RHF) =  -2902.88786759     A.U. after    8 cycles
 E2 =    -0.7512334606D+00 EUMP2 =    -0.29036391010533D+04
 E2 =    -0.7509737276D+00 EUMP2 =    -0.29036389307380D+04
 SCF Done:  E(RHF) =  -2902.88801523     A.U. after    8 cycles
 E2 =    -0.7507549422D+00 EUMP2 =    -0.29036387701720D+04
 SCF Done:  E(RHF) =  -2902.88805236     A.U. after    8 cycles
 E2 =    -0.7505704830D+00 EUMP2 =    -0.29036386228423D+04
 SCF Done:  E(RHF) =  -2902.88807540     A.U. after    8 cycles
 E2 =    -0.7504145064D+00 EUMP2 =    -0.29036384899082D+04
 SCF Done:  E(RHF) =  -2902.88808911     A.U. after    8 cycles
 E2 =    -0.7502820014D+00 EUMP2 =    -0.29036383711156D+04
 SCF Done:  E(RHF) =  -2902.88809667     A.U. after    8 cycles
 E2 =    -0.7501687950D+00 EUMP2 =    -0.29036382654683D+04
 SCF Done:  E(RHF) =  -2902.88810019     A.U. after    8 cycles
 E2 =    -0.7500715009D+00 EUMP2 =    -0.29036381716893D+04
 SCF Done:  E(RHF) =  -2902.88810108     A.U. after    8 cycles
 E2 =    -0.7499874178D+00 EUMP2 =    -0.29036380884978D+04
 SCF Done:  E(RHF) =  -2902.88810033     A.U. after    8 cycles
 E2 =    -0.7499143977D+00 EUMP2 =    -0.29036380147303D+04
 SCF Done:  E(RHF) =  -2902.88809864     A.U. after    8 cycles
 E2 =    -0.7498507146D+00 EUMP2 =    -0.29036379493569D+04

                         Standard orientation:
 ---------------------------------------------------------------------
 Center     Atomic      Atomic             Coordinates (Angstroms)
 Number     Number       Type             X           Y           Z
 ---------------------------------------------------------------------
      1          8           0        3.347351   -0.702876   -0.113803
      2          8           0        3.340916    0.741517    0.013421
      3          1           0        3.672093   -1.074253    0.716726
      4          1           0        2.420932    1.033951    0.049025
      5         36           0       -1.655532   -0.007467    0.001036
 ---------------------------------------------------------------------

 SCF Done:  E(RHF) =  -2902.88809650     A.U. after    8 cycles
 E2 =    -0.7497949532D+00 EUMP2 =    -0.29036378914488D+04
 Normal termination of Gaussian 09 at Mon Dec  2 13:00:06 2019.
