 Gaussian 09, Revision C.01,
 Gaussian 09:  EM64L-G09RevC.01 23-Sep-2011

 -------------------------------------
 #p mp4/aug-cc-PVTz int=ultrafine Scan
 -------------------------------------

 (Enter /home/matheus/.gaussian/g09/l101.exe)
 ----
 PTCC
 ----
 Charge =  0 Multiplicity = 1

 SCF Done:  E(RHF) =  -2902.87734266     A.U. after   14 cycles
 E2 =    -0.7560307559D+00 EUMP2 =    -0.29036333734129D+04

 The electronic state is 1-A.
 Alpha  occ. eigenvalues -- -520.17290 -69.91045 -63.01703 -63.01701 -63.01697
 Alpha  occ. eigenvalues --  -20.62691 -20.62351 -10.85708  -8.33932  -8.33905
 Alpha  occ. eigenvalues --   -8.33890  -3.83312  -3.83306  -3.83286  -3.83258
 Alpha  occ. eigenvalues --   -3.83255  -1.46437  -1.21679  -1.16292  -0.71474
 Alpha  occ. eigenvalues --   -0.70174  -0.62148  -0.54340  -0.53193  -0.52802
 Alpha  occ. eigenvalues --   -0.51681  -0.45789
 Alpha virt. eigenvalues --    0.03587   0.04508   0.08886   0.10543   0.11443
 Alpha virt. eigenvalues --    0.12477   0.15288   0.16350   0.17264   0.18020
 Alpha virt. eigenvalues --    0.19618   0.21273   0.24928   0.25958   0.26687

 Mulliken atomic charges:
              1
     1  O   -0.248951
     2  O   -0.311408
     3  H    0.257312
     4  H    0.291138
     5  Kr   0.011910
 Sum of Mulliken atomic charges =   0.00000

 Dipole moment (field-independent basis, Debye):
    X=              0.2318    Y=             -0.2801    Z=              0.5660  Tot=              0.6727
 Quadrupole moment (field-independent basis, Debye-Ang):
   XX=            -26.6933   YY=            -28.2856   ZZ=            -30.3406
   XY=              3.9458   XZ=             -1.7687   YZ=             -0.5962

 SCF Done:  E(RHF) =  -2902.87974182     A.U. after    9 cycles
 E2 =    -0.7549379599D+00 EUMP2 =    -0.29036346797764D+04
 SCF Done:  E(RHF) =  -2902.88144401     A.U. after    9 cycles
 E2 =    -0.7540091067D+00 EUMP2 =    -0.29036354531180D+04
 SCF Done:  E(RHF) =  -2902.88264516     A.U. after    9 cycles
 E2 =    -0.7532154235D+00 EUMP2 =    -0.29036358605799D+04
 SCF Done:  E(RHF) =  -2902.88348781     A.U. after    9 cycles
 E2 =    -0.7525348839D+00 EUMP2 =    -0.29036360226970D+04
 SCF Done:  E(RHF) =  -2902.88407511     A.U. after    9 cycles
 E2 =    -0.7519510033D+00 EUMP2 =    -0.29036360261145D+04
 SCF Done:  E(RHF) =  -2902.88448131     A.U. after    9 cycles
 E2 =    -0.7514511419D+00 EUMP2 =    -0.29036359324511D+04
 SCF Done:  E(RHF) =  -2902.88475971     A.U. after    8 cycles
 E2 =    -0.7510249324D+00 EUMP2 =    -0.29036357846376D+04
 SCF Done:  E(RHF) =  -2902.88494848     A.U. after    8 cycles
 E2 =    -0.7506632167D+00 EUMP2 =    -0.29036356116921D+04
 SCF Done:  E(RHF) =  -2902.88507491     A.U. after    8 cycles
 E2 =    -0.7503575189D+00 EUMP2 =    -0.29036354324287D+04
 E2 =    -0.7500999026D+00 EUMP2 =    -0.29036352583477D+04
 SCF Done:  E(RHF) =  -2902.88521282     A.U. after    8 cycles
 E2 =    -0.7498830246D+00 EUMP2 =    -0.29036350958464D+04
 SCF Done:  E(RHF) =  -2902.88524763     A.U. after    8 cycles
 E2 =    -0.7497002515D+00 EUMP2 =    -0.29036349478846D+04
 SCF Done:  E(RHF) =  -2902.88526945     A.U. after    8 cycles
 E2 =    -0.7495457580D+00 EUMP2 =    -0.29036348152129D+04
 SCF Done:  E(RHF) =  -2902.88528270     A.U. after    8 cycles
 E2 =    -0.7494145785D+00 EUMP2 =    -0.29036346972772D+04
 SCF Done:  E(RHF) =  -2902.88529027     A.U. after    8 cycles
 E2 =    -0.7493025963D+00 EUMP2 =    -0.29036345928676D+04
 SCF Done:  E(RHF) =  -2902.88529408     A.U. after    8 cycles
 E2 =    -0.7492064759D+00 EUMP2 =    -0.29036345005558D+04
 SCF Done:  E(RHF) =  -2902.88529540     A.U. after    8 cycles
 E2 =    -0.7491235494D+00 EUMP2 =    -0.29036344189511D+04
 SCF Done:  E(RHF) =  -2902.88529512     A.U. after    7 cycles
 E2 =    -0.7490516729D+00 EUMP2 =    -0.29036343467970D+04
 SCF Done:  E(RHF) =  -2902.88529388     A.U. after    7 cycles
 E2 =    -0.7489891251D+00 EUMP2 =    -0.29036342830083D+04

                         Standard orientation:
 ---------------------------------------------------------------------
 Center     Atomic      Atomic             Coordinates (Angstroms)
 Number     Number       Type             X           Y           Z
 ---------------------------------------------------------------------
      1          8           0       -3.338788   -0.703117   -0.041633
      2          8           0       -3.329684    0.746197    0.002021
      3          1           0       -4.205330   -1.005406    0.259834
      4          1           0       -2.409117    1.038679    0.014862
      5         36           0        1.665617   -0.010497    0.001172
 ---------------------------------------------------------------------

 SCF Done:  E(RHF) =  -2902.88529213     A.U. after    7 cycles
 E2 =    -0.7489344553D+00 EUMP2 =    -0.29036342265860D+04
 Normal termination of Gaussian 09 at Wed Dec 11 18:31:31 2019.
