 Gaussian 09, Revision C.01,
 Gaussian 09:  EM64L-G09RevC.01 23-Sep-2011

 -------------------------------------
 #p mp4/aug-cc-PVTz int=ultrafine Scan
 -------------------------------------

 (Enter /home/matheus/.gaussian/g09/l101.exe)
 ----
 PTCC
 ----
 Charge =  0 Multiplicity = 1

 SCF Done:  E(RHF) =  -2902.87702644     A.U. after   13 cycles
 E2 =    -0.7559397644D+00 EUMP2 =    -0.29036329662010D+04

 The electronic state is 1-A.
 Alpha  occ. eigenvalues -- -520.17281 -69.91035 -63.01694 -63.01691 -63.01688
 Alpha  occ. eigenvalues --  -20.62659 -20.62316 -10.85699  -8.33922  -8.33896
 Alpha  occ. eigenvalues --   -8.33881  -3.83302  -3.83297  -3.83277  -3.83248
 Alpha  occ. eigenvalues --   -3.83245  -1.46414  -1.21668  -1.16281  -0.71560
 Alpha  occ. eigenvalues --   -0.69898  -0.62339  -0.54382  -0.53178  -0.52803
 Alpha  occ. eigenvalues --   -0.51740  -0.45589
 Alpha virt. eigenvalues --    0.03594   0.04508   0.08878   0.10594   0.11427
 Alpha virt. eigenvalues --    0.12475   0.15271   0.16458   0.17384   0.17805
 Alpha virt. eigenvalues --    0.19687   0.21240   0.25152   0.26059   0.26676

 Mulliken atomic charges:
              1
     1  O   -0.243636
     2  O   -0.312677
     3  H    0.251680
     4  H    0.291780
     5  Kr   0.012853
 Sum of Mulliken atomic charges =   0.00000

 Dipole moment (field-independent basis, Debye):
    X=             -0.1610    Y=             -0.2665    Z=              0.2880  Tot=              0.4241
 Quadrupole moment (field-independent basis, Debye-Ang):
   XX=            -26.2005   YY=            -28.3199   ZZ=            -30.4813
   XY=             -3.9928   XZ=              0.9124   YZ=             -0.3004

 SCF Done:  E(RHF) =  -2902.87941577     A.U. after    9 cycles
 E2 =    -0.7548484074D+00 EUMP2 =    -0.29036342641754D+04
 SCF Done:  E(RHF) =  -2902.88111083     A.U. after    9 cycles
 E2 =    -0.7539205638D+00 EUMP2 =    -0.29036350313932D+04
 SCF Done:  E(RHF) =  -2902.88230677     A.U. after    9 cycles
 E2 =    -0.7531273941D+00 EUMP2 =    -0.29036354341673D+04
 SCF Done:  E(RHF) =  -2902.88314562     A.U. after    9 cycles
 E2 =    -0.7524469774D+00 EUMP2 =    -0.29036355925992D+04
 SCF Done:  E(RHF) =  -2902.88373013     A.U. after    9 cycles
 E2 =    -0.7518629969D+00 EUMP2 =    -0.29036355931286D+04
 SCF Done:  E(RHF) =  -2902.88413430     A.U. after    9 cycles
 E2 =    -0.7513629479D+00 EUMP2 =    -0.29036354972514D+04
 SCF Done:  E(RHF) =  -2902.88441125     A.U. after    8 cycles
 E2 =    -0.7509365334D+00 EUMP2 =    -0.29036353477846D+04
 SCF Done:  E(RHF) =  -2902.88459901     A.U. after    8 cycles
 E2 =    -0.7505746034D+00 EUMP2 =    -0.29036351736135D+04
 SCF Done:  E(RHF) =  -2902.88472475     A.U. after    8 cycles
 E2 =    -0.7502686686D+00 EUMP2 =    -0.29036349934233D+04
 E2 =    -0.7500107770D+00 EUMP2 =    -0.29036348186025D+04
 SCF Done:  E(RHF) =  -2902.88486189     A.U. after    7 cycles
 E2 =    -0.7497935722D+00 EUMP2 =    -0.29036346554586D+04
 SCF Done:  E(RHF) =  -2902.88489647     A.U. after    7 cycles
 E2 =    -0.7496104642D+00 EUMP2 =    -0.29036345069378D+04
 SCF Done:  E(RHF) =  -2902.88491813     A.U. after    7 cycles
 E2 =    -0.7494556415D+00 EUMP2 =    -0.29036343737678D+04
 SCF Done:  E(RHF) =  -2902.88493124     A.U. after    7 cycles
 E2 =    -0.7493241681D+00 EUMP2 =    -0.29036342554033D+04
 SCF Done:  E(RHF) =  -2902.88493870     A.U. after    7 cycles
 E2 =    -0.7492119518D+00 EUMP2 =    -0.29036341506493D+04
 SCF Done:  E(RHF) =  -2902.88494242     A.U. after    7 cycles
 E2 =    -0.7491156707D+00 EUMP2 =    -0.29036340580880D+04
 SCF Done:  E(RHF) =  -2902.88494367     A.U. after    7 cycles
 E2 =    -0.7490326588D+00 EUMP2 =    -0.29036339763287D+04
 SCF Done:  E(RHF) =  -2902.88494334     A.U. after    7 cycles
 E2 =    -0.7489607706D+00 EUMP2 =    -0.29036339041113D+04
 SCF Done:  E(RHF) =  -2902.88494206     A.U. after    7 cycles
 E2 =    -0.7488982528D+00 EUMP2 =    -0.29036338403139D+04

                         Standard orientation:
 ---------------------------------------------------------------------
 Center     Atomic      Atomic             Coordinates (Angstroms)
 Number     Number       Type             X           Y           Z
 ---------------------------------------------------------------------
      1          8           0        3.338158   -0.703367   -0.021128
      2          8           0        3.328859    0.746436    0.000898
      3          1           0        4.245173   -0.998426    0.131910
      4          1           0        2.408245    1.038983    0.007406
      5         36           0       -1.666376   -0.010697    0.000625
 ---------------------------------------------------------------------

 SCF Done:  E(RHF) =  -2902.88494028     A.U. after    7 cycles
 E2 =    -0.7488436423D+00 EUMP2 =    -0.29036337839205D+04
 Normal termination of Gaussian 09 at Sun Dec  8 21:45:32 2019.
