 Gaussian 09, Revision C.01,
 Gaussian 09:  EM64L-G09RevC.01 23-Sep-2011

 --------------------------------
 #p mp4/aug-cc-PVTz int=ultrafine
 --------------------------------

 (Enter /home/matheus/.gaussian/g09/l101.exe)
 ----
 PTCC
 ----
 Charge =  0 Multiplicity = 1

                         Standard orientation:
 ---------------------------------------------------------------------
 Center     Atomic      Atomic             Coordinates (Angstroms)
 Number     Number       Type             X           Y           Z
 ---------------------------------------------------------------------
      1          8           0        0.000000    0.725000  -10.034027
      2          8           0        0.000000   -0.725000  -10.034027
      3          1           0        0.000000    1.023510   -9.115306
      4          1           0        0.000000   -1.023510   -9.115306
      5         36           0        0.000000    0.000000    4.965973
 ---------------------------------------------------------------------

 SCF Done:  E(RHF) =  -2902.87986111     A.U. after   11 cycles
 E2 =    -0.7494538121D+00 EUMP2 =    -0.29036293149189D+04

 The electronic state is 1-A1.
 Alpha  occ. eigenvalues -- -520.16721 -69.90464 -63.01120 -63.01120 -63.01120
 Alpha  occ. eigenvalues --  -20.63488 -20.63461 -10.85122  -8.33322  -8.33322
 Alpha  occ. eigenvalues --   -8.33322  -3.82698  -3.82698  -3.82698  -3.82698
 Alpha  occ. eigenvalues --   -3.82698  -1.47340  -1.22057  -1.15486  -0.77065
 Alpha  occ. eigenvalues --   -0.63039  -0.59950  -0.58046  -0.52605  -0.52603
 Alpha  occ. eigenvalues --   -0.52603  -0.46245
 Alpha virt. eigenvalues --    0.02572   0.04147   0.10298   0.10412   0.10420
 Alpha virt. eigenvalues --    0.10420   0.12380   0.14028   0.15917   0.16565
 Alpha virt. eigenvalues --    0.17559   0.19333   0.20056   0.24925   0.27715

 Mulliken atomic charges:
              1
     1  O   -0.241194
     2  O   -0.241194
     3  H    0.241194
     4  H    0.241194
     5  Kr   0.000000
 Sum of Mulliken atomic charges =   0.00000

 Dipole moment (field-independent basis, Debye):
    X=              0.0000    Y=              0.0000    Z=              3.2750  Tot=              3.2750
 Quadrupole moment (field-independent basis, Debye-Ang):
   XX=            -30.6149   YY=            -28.1913   ZZ=            -91.7940
   XY=              0.0000   XZ=              0.0000   YZ=              0.0000

 Normal termination of Gaussian 09 at Thu Mar 12 22:02:36 2020.
