 Gaussian 09, Revision C.01,
 Gaussian 09:  EM64L-G09RevC.01 23-Sep-2011

 -------------------------------------
 #p mp4/aug-cc-PVTz int=ultrafine Scan
 -------------------------------------

 (Enter /home/matheus/.gaussian/g09/l101.exe)
 ----
 PTCC
 ----
 Charge =  0 Multiplicity = 1

 SCF Done:  E(RHF) =  -2902.87646703     A.U. after   13 cycles
 E2 =    -0.7578260427D+00 EUMP2 =    -0.29036342930726D+04

 The electronic state is 1-A.
 Alpha  occ. eigenvalues -- -520.18875 -69.92632 -63.03289 -63.03288 -63.03284
 Alpha  occ. eigenvalues --  -20.63059 -20.62796 -10.87297  -8.35516  -8.35499
 Alpha  occ. eigenvalues --   -8.35481  -3.84896  -3.84893  -3.84870  -3.84854
 Alpha  occ. eigenvalues --   -3.84849  -1.46864  -1.21739  -1.17930  -0.75688
 Alpha  occ. eigenvalues --   -0.66686  -0.60088  -0.55722  -0.54811  -0.54230
 Alpha  occ. eigenvalues --   -0.52552  -0.47563
 Alpha virt. eigenvalues --    0.03495   0.04551   0.08643   0.09602   0.11573
 Alpha virt. eigenvalues --    0.12957   0.14412   0.15678   0.18136   0.18879
 Alpha virt. eigenvalues --    0.19111   0.21117   0.22586   0.25928   0.26548

 Mulliken atomic charges:
              1
     1  O   -0.262813
     2  O   -0.293268
     3  H    0.265221
     4  H    0.278300
     5  Kr   0.012560
 Sum of Mulliken atomic charges =   0.00000

 Dipole moment (field-independent basis, Debye):
    X=             -2.7236    Y=             -0.2676    Z=              1.2967  Tot=              3.0284
 Quadrupole moment (field-independent basis, Debye-Ang):
   XX=            -37.7454   YY=            -27.8714   ZZ=            -29.1963
   XY=             -1.1842   XZ=              2.1099   YZ=             -1.6579

 SCF Done:  E(RHF) =  -2902.87923626     A.U. after    9 cycles
 E2 =    -0.7566471239D+00 EUMP2 =    -0.29036358833857D+04
 SCF Done:  E(RHF) =  -2902.88121153     A.U. after    9 cycles
 E2 =    -0.7556430732D+00 EUMP2 =    -0.29036368546050D+04
 SCF Done:  E(RHF) =  -2902.88261282     A.U. after    9 cycles
 E2 =    -0.7547849458D+00 EUMP2 =    -0.29036373977650D+04
 SCF Done:  E(RHF) =  -2902.88360110     A.U. after    9 cycles
 E2 =    -0.7540497703D+00 EUMP2 =    -0.29036376508718D+04
 SCF Done:  E(RHF) =  -2902.88429347     A.U. after    9 cycles
 E2 =    -0.7534196505D+00 EUMP2 =    -0.29036377131206D+04
 SCF Done:  E(RHF) =  -2902.88477466     A.U. after    9 cycles
 E2 =    -0.7528804239D+00 EUMP2 =    -0.29036376550883D+04
 SCF Done:  E(RHF) =  -2902.88510579     A.U. after    8 cycles
 E2 =    -0.7524203562D+00 EUMP2 =    -0.29036375261461D+04
 SCF Done:  E(RHF) =  -2902.88533082     A.U. after    8 cycles
 E2 =    -0.7520292257D+00 EUMP2 =    -0.29036373600453D+04
 SCF Done:  E(RHF) =  -2902.88548136     A.U. after    8 cycles
 E2 =    -0.7516977967D+00 EUMP2 =    -0.29036371791564D+04
 E2 =    -0.7514176286D+00 EUMP2 =    -0.29036369977182D+04
 SCF Done:  E(RHF) =  -2902.88564321     A.U. after    8 cycles
 E2 =    -0.7511810370D+00 EUMP2 =    -0.29036368242497D+04
 SCF Done:  E(RHF) =  -2902.88568221     A.U. after    8 cycles
 E2 =    -0.7509811264D+00 EUMP2 =    -0.29036366633333D+04
 SCF Done:  E(RHF) =  -2902.88570509     A.U. after    8 cycles
 E2 =    -0.7508118259D+00 EUMP2 =    -0.29036365169163D+04
 SCF Done:  E(RHF) =  -2902.88571736     A.U. after    8 cycles
 E2 =    -0.7506679118D+00 EUMP2 =    -0.29036363852753D+04
 SCF Done:  E(RHF) =  -2902.88572273     A.U. after    7 cycles
 E2 =    -0.7505449935D+00 EUMP2 =    -0.29036362677276D+04
 SCF Done:  E(RHF) =  -2902.88572368     A.U. after    7 cycles
 E2 =    -0.7504394630D+00 EUMP2 =    -0.29036361631383D+04
 SCF Done:  E(RHF) =  -2902.88572184     A.U. after    7 cycles
 E2 =    -0.7503483963D+00 EUMP2 =    -0.29036360702391D+04
 SCF Done:  E(RHF) =  -2902.88571836     A.U. after    7 cycles
 E2 =    -0.7502694373D+00 EUMP2 =    -0.29036359877988D+04
 SCF Done:  E(RHF) =  -2902.88571400     A.U. after    7 cycles
 E2 =    -0.7502006754D+00 EUMP2 =    -0.29036359146801D+04

                         Standard orientation:
 ---------------------------------------------------------------------
 Center     Atomic      Atomic             Coordinates (Angstroms)
 Number     Number       Type             X           Y           Z
 ---------------------------------------------------------------------
      1          8           0        3.359854   -0.713590   -0.099525
      2          8           0        3.357398    0.731636    0.018009
      3          1           0        2.907321   -1.076669    0.672837
      4          1           0        2.438202    1.027023    0.049337
      5         36           0       -1.641210   -0.002631   -0.001946
 ---------------------------------------------------------------------

 SCF Done:  E(RHF) =  -2902.88570930     A.U. after    7 cycles
 E2 =    -0.7501405406D+00 EUMP2 =    -0.29036358498380D+04
 Normal termination of Gaussian 09 at Fri Nov 22 19:32:32 2019.
