 Gaussian 09, Revision C.01,
 Gaussian 09:  EM64L-G09RevC.01 23-Sep-2011

 -------------------------------------
 #p mp4/aug-cc-PVTz int=ultrafine Scan
 -------------------------------------

 (Enter /home/matheus/.gaussian/g09/l101.exe)
 ----
 PTCC
 ----
 Charge =  0 Multiplicity = 1

 SCF Done:  E(RHF) =  -2902.87951643     A.U. after   13 cycles
 E2 =    -0.7572697194D+00 EUMP2 =    -0.29036367861489D+04

 The electronic state is 1-A.
 Alpha  occ. eigenvalues -- -520.17980 -69.91736 -63.02394 -63.02392 -63.02388
 Alpha  occ. eigenvalues --  -20.63084 -20.62790 -10.86402  -8.34623  -8.34601
 Alpha  occ. eigenvalues --   -8.34583  -3.84004  -3.84000  -3.83976  -3.83954
 Alpha  occ. eigenvalues --   -3.83950  -1.46788  -1.21797  -1.17005  -0.74167
 Alpha  occ. eigenvalues --   -0.68862  -0.60400  -0.54543  -0.53939  -0.53380
 Alpha  occ. eigenvalues --   -0.50123  -0.49307
 Alpha virt. eigenvalues --    0.03444   0.04526   0.08822   0.09866   0.11655
 Alpha virt. eigenvalues --    0.12619   0.14469   0.15695   0.17808   0.18823
 Alpha virt. eigenvalues --    0.19077   0.21194   0.22918   0.25706   0.26814

 Mulliken atomic charges:
              1
     1  O   -0.261331
     2  O   -0.301712
     3  H    0.265799
     4  H    0.284743
     5  Kr   0.012502
 Sum of Mulliken atomic charges =   0.00000

 Dipole moment (field-independent basis, Debye):
    X=             -1.8020    Y=             -0.3829    Z=              1.5666  Tot=              2.4182
 Quadrupole moment (field-independent basis, Debye-Ang):
   XX=            -34.9945   YY=            -27.8294   ZZ=            -28.8395
   XY=             -2.3599   XZ=              3.3963   YZ=             -1.9257

 SCF Done:  E(RHF) =  -2902.88208379     A.U. after    9 cycles
 E2 =    -0.7561569742D+00 EUMP2 =    -0.29036382407642D+04
 SCF Done:  E(RHF) =  -2902.88391038     A.U. after    9 cycles
 E2 =    -0.7552106388D+00 EUMP2 =    -0.29036391210207D+04
 SCF Done:  E(RHF) =  -2902.88520329     A.U. after    9 cycles
 E2 =    -0.7544025317D+00 EUMP2 =    -0.29036396058246D+04
 SCF Done:  E(RHF) =  -2902.88611357     A.U. after    9 cycles
 E2 =    -0.7537103082D+00 EUMP2 =    -0.29036398238736D+04
 SCF Done:  E(RHF) =  -2902.88675065     A.U. after    9 cycles
 E2 =    -0.7531167491D+00 EUMP2 =    -0.29036398673973D+04
 SCF Done:  E(RHF) =  -2902.88719342     A.U. after    9 cycles
 E2 =    -0.7526084901D+00 EUMP2 =    -0.29036398019067D+04
 SCF Done:  E(RHF) =  -2902.88749851     A.U. after    8 cycles
 E2 =    -0.7521746828D+00 EUMP2 =    -0.29036396731891D+04
 SCF Done:  E(RHF) =  -2902.88770652     A.U. after    8 cycles
 E2 =    -0.7518059553D+00 EUMP2 =    -0.29036395124722D+04
 SCF Done:  E(RHF) =  -2902.88784654     A.U. after    8 cycles
 E2 =    -0.7514938145D+00 EUMP2 =    -0.29036393403495D+04
 E2 =    -0.7512303792D+00 EUMP2 =    -0.29036391697464D+04
 SCF Done:  E(RHF) =  -2902.88799982     A.U. after    8 cycles
 E2 =    -0.7510083550D+00 EUMP2 =    -0.29036390081771D+04
 SCF Done:  E(RHF) =  -2902.88803833     A.U. after    8 cycles
 E2 =    -0.7508210996D+00 EUMP2 =    -0.29036388594327D+04
 SCF Done:  E(RHF) =  -2902.88806214     A.U. after    8 cycles
 E2 =    -0.7506627265D+00 EUMP2 =    -0.29036387248636D+04
 SCF Done:  E(RHF) =  -2902.88807616     A.U. after    8 cycles
 E2 =    -0.7505281764D+00 EUMP2 =    -0.29036386043363D+04
 SCF Done:  E(RHF) =  -2902.88808370     A.U. after    8 cycles
 E2 =    -0.7504132314D+00 EUMP2 =    -0.29036384969362D+04
 SCF Done:  E(RHF) =  -2902.88808698     A.U. after    8 cycles
 E2 =    -0.7503144681D+00 EUMP2 =    -0.29036384014474D+04
 SCF Done:  E(RHF) =  -2902.88808748     A.U. after    8 cycles
 E2 =    -0.7502291555D+00 EUMP2 =    -0.29036383166383D+04
 SCF Done:  E(RHF) =  -2902.88808626     A.U. after    8 cycles
 E2 =    -0.7501551215D+00 EUMP2 =    -0.29036382413842D+04
 SCF Done:  E(RHF) =  -2902.88808406     A.U. after    8 cycles
 E2 =    -0.7500906177D+00 EUMP2 =    -0.29036381746814D+04

                         Standard orientation:
 ---------------------------------------------------------------------
 Center     Atomic      Atomic             Coordinates (Angstroms)
 Number     Number       Type             X           Y           Z
 ---------------------------------------------------------------------
      1          8           0        3.352389   -0.705668   -0.119404
      2          8           0        3.347542    0.737825    0.017723
      3          1           0        3.363018   -1.089687    0.766921
      4          1           0        2.427879    1.031028    0.055250
      5         36           0       -1.649732   -0.005516   -0.000242
 ---------------------------------------------------------------------

 SCF Done:  E(RHF) =  -2902.88808141     A.U. after    8 cycles
 E2 =    -0.7500342056D+00 EUMP2 =    -0.29036381156120D+04
 Normal termination of Gaussian 09 at Sun Dec  1 19:26:18 2019.
