 Gaussian 09, Revision C.01,
 Gaussian 09:  EM64L-G09RevC.01 23-Sep-2011

 -------------------------------------
 #p mp4/aug-cc-PVTz int=ultrafine Scan
 -------------------------------------

 (Enter /home/matheus/.gaussian/g09/l101.exe)
 ----
 PTCC
 ----
 Charge =  0 Multiplicity = 1

 SCF Done:  E(RHF) =  -2902.87691622     A.U. after   12 cycles
 E2 =    -0.7559091035D+00 EUMP2 =    -0.29036328253246D+04

 The electronic state is 1-A'.
 Alpha  occ. eigenvalues -- -520.17278 -69.91033 -63.01691 -63.01689 -63.01685
 Alpha  occ. eigenvalues --  -20.62648 -20.62303 -10.85696  -8.33920  -8.33893
 Alpha  occ. eigenvalues --   -8.33878  -3.83299  -3.83294  -3.83274  -3.83246
 Alpha  occ. eigenvalues --   -3.83243  -1.46406  -1.21664  -1.16278  -0.71589
 Alpha  occ. eigenvalues --   -0.69800  -0.62408  -0.54397  -0.53173  -0.52804
 Alpha  occ. eigenvalues --   -0.51759  -0.45521
 Alpha virt. eigenvalues --    0.03596   0.04508   0.08876   0.10612   0.11421
 Alpha virt. eigenvalues --    0.12474   0.15263   0.16483   0.17579   0.17589
 Alpha virt. eigenvalues --    0.19713   0.21228   0.25213   0.26126   0.26666

 Mulliken atomic charges:
              1
     1  O   -0.241184
     2  O   -0.313199
     3  H    0.249119
     4  H    0.292015
     5  Kr   0.013250
 Sum of Mulliken atomic charges =   0.00000

 Dipole moment (field-independent basis, Debye):
    X=              0.2591    Y=              0.1423    Z=              0.0000  Tot=              0.2956
 Quadrupole moment (field-independent basis, Debye-Ang):
   XX=            -28.1789   YY=            -26.1855   ZZ=            -30.5300
   XY=             -4.0487   XZ=              0.0000   YZ=              0.0000

 SCF Done:  E(RHF) =  -2902.87930212     A.U. after    9 cycles
 E2 =    -0.7548183231D+00 EUMP2 =    -0.29036341204406D+04
 SCF Done:  E(RHF) =  -2902.88099467     A.U. after    9 cycles
 E2 =    -0.7538908295D+00 EUMP2 =    -0.29036348855039D+04
 SCF Done:  E(RHF) =  -2902.88218879     A.U. after    9 cycles
 E2 =    -0.7530977881D+00 EUMP2 =    -0.29036352865732D+04
 SCF Done:  E(RHF) =  -2902.88302629     A.U. after    9 cycles
 E2 =    -0.7524173410D+00 EUMP2 =    -0.29036354436295D+04
 SCF Done:  E(RHF) =  -2902.88360981     A.U. after    9 cycles
 E2 =    -0.7518332466D+00 EUMP2 =    -0.29036354430608D+04
 SCF Done:  E(RHF) =  -2902.88401327     A.U. after    9 cycles
 E2 =    -0.7513330586D+00 EUMP2 =    -0.29036353463323D+04
 SCF Done:  E(RHF) =  -2902.88428972     A.U. after    8 cycles
 E2 =    -0.7509065061D+00 EUMP2 =    -0.29036351962216D+04
 SCF Done:  E(RHF) =  -2902.88447712     A.U. after    8 cycles
 E2 =    -0.7505444421D+00 EUMP2 =    -0.29036350215657D+04
 SCF Done:  E(RHF) =  -2902.88460263     A.U. after    8 cycles
 E2 =    -0.7502383685D+00 EUMP2 =    -0.29036348409979D+04
 E2 =    -0.7499803264D+00 EUMP2 =    -0.29036346658645D+04
 SCF Done:  E(RHF) =  -2902.88473949     A.U. after    8 cycles
 E2 =    -0.7497629727D+00 EUMP2 =    -0.29036345024584D+04
 SCF Done:  E(RHF) =  -2902.88477399     A.U. after    8 cycles
 E2 =    -0.7495796976D+00 EUMP2 =    -0.29036343536864D+04
 SCF Done:  E(RHF) =  -2902.88479557     A.U. after    8 cycles
 E2 =    -0.7494247148D+00 EUMP2 =    -0.29036342202893D+04
 SCF Done:  E(RHF) =  -2902.88480863     A.U. after    7 cycles
 E2 =    -0.7492930986D+00 EUMP2 =    -0.29036341017258D+04
 SCF Done:  E(RHF) =  -2902.88481604     A.U. after    7 cycles
 E2 =    -0.7491807682D+00 EUMP2 =    -0.29036339968104D+04
 SCF Done:  E(RHF) =  -2902.88481972     A.U. after    7 cycles
 E2 =    -0.7490844053D+00 EUMP2 =    -0.29036339041281D+04
 SCF Done:  E(RHF) =  -2902.88482094     A.U. after    7 cycles
 E2 =    -0.7490013437D+00 EUMP2 =    -0.29036338222883D+04
 SCF Done:  E(RHF) =  -2902.88482059     A.U. after    7 cycles
 E2 =    -0.7489294337D+00 EUMP2 =    -0.29036337500257D+04
 SCF Done:  E(RHF) =  -2902.88481929     A.U. after    7 cycles
 E2 =    -0.7488669150D+00 EUMP2 =    -0.29036336862098D+04

                         Standard orientation:
 ---------------------------------------------------------------------
 Center     Atomic      Atomic             Coordinates (Angstroms)
 Number     Number       Type             X           Y           Z
 ---------------------------------------------------------------------
      1          8           0        0.725000   -3.333333    0.000000
      2          8           0       -0.725000   -3.333333    0.000000
      3          1           0        1.023510   -4.252054    0.000000
      4          1           0       -1.023510   -2.414613    0.000000
      5         36           0        0.000000    1.666667    0.000000
 ---------------------------------------------------------------------

 SCF Done:  E(RHF) =  -2902.88481750     A.U. after    7 cycles
 E2 =    -0.7488123164D+00 EUMP2 =    -0.29036336298146D+04
 Normal termination of Gaussian 09 at Mon Dec  9 03:18:25 2019.
