 Gaussian 09, Revision C.01,
 Gaussian 09:  EM64L-G09RevC.01 23-Sep-2011

 -------------------------------------
 #p mp4/aug-cc-PVTz int=ultrafine Scan
 -------------------------------------

 (Enter /home/matheus/.gaussian/g09/l101.exe)
 ----
 PTCC
 ----
 Charge =  0 Multiplicity = 1

 SCF Done:  E(RHF) =  -2902.87839539     A.U. after   13 cycles
 E2 =    -0.7563610591D+00 EUMP2 =    -0.29036347564493D+04

 The electronic state is 1-A.
 Alpha  occ. eigenvalues -- -520.17344 -69.91099 -63.01758 -63.01755 -63.01752
 Alpha  occ. eigenvalues --  -20.62799 -20.62474 -10.85763  -8.33987  -8.33961
 Alpha  occ. eigenvalues --   -8.33945  -3.83367  -3.83362  -3.83340  -3.83313
 Alpha  occ. eigenvalues --   -3.83310  -1.46519  -1.21718  -1.16351  -0.71318
 Alpha  occ. eigenvalues --   -0.70900  -0.61571  -0.54217  -0.53267  -0.52823
 Alpha  occ. eigenvalues --   -0.51398  -0.46565
 Alpha virt. eigenvalues --    0.03556   0.04508   0.08906   0.10375   0.11498
 Alpha virt. eigenvalues --    0.12482   0.15224   0.15929   0.17305   0.18419
 Alpha virt. eigenvalues --    0.19392   0.21342   0.24093   0.25926   0.26663

 Mulliken atomic charges:
              1
     1  O   -0.256110
     2  O   -0.308814
     3  H    0.264853
     4  H    0.289443
     5  Kr   0.010628
 Sum of Mulliken atomic charges =   0.00000

 Dipole moment (field-independent basis, Debye):
    X=              0.5083    Y=             -0.3262    Z=              1.0542  Tot=              1.2150
 Quadrupole moment (field-independent basis, Debye-Ang):
   XX=            -28.5149   YY=            -28.1609   ZZ=            -29.8558
   XY=              3.7384   XZ=             -3.1170   YZ=             -1.1523

 SCF Done:  E(RHF) =  -2902.88082844     A.U. after    9 cycles
 E2 =    -0.7552647169D+00 EUMP2 =    -0.29036360931540D+04
 SCF Done:  E(RHF) =  -2902.88255509     A.U. after    9 cycles
 E2 =    -0.7543326242D+00 EUMP2 =    -0.29036368877168D+04
 SCF Done:  E(RHF) =  -2902.88377397     A.U. after    9 cycles
 E2 =    -0.7535365353D+00 EUMP2 =    -0.29036373105065D+04
 SCF Done:  E(RHF) =  -2902.88462957     A.U. after   10 cycles
 E2 =    -0.7528544653D+00 EUMP2 =    -0.29036374840367D+04
 SCF Done:  E(RHF) =  -2902.88522638     A.U. after    9 cycles
 E2 =    -0.7522696992D+00 EUMP2 =    -0.29036374960766D+04
 SCF Done:  E(RHF) =  -2902.88563957     A.U. after    9 cycles
 E2 =    -0.7517693121D+00 EUMP2 =    -0.29036374088810D+04
 SCF Done:  E(RHF) =  -2902.88592307     A.U. after    8 cycles
 E2 =    -0.7513427349D+00 EUMP2 =    -0.29036372658022D+04
 SCF Done:  E(RHF) =  -2902.88611549     A.U. after    8 cycles
 E2 =    -0.7509807113D+00 EUMP2 =    -0.29036370961986D+04
 SCF Done:  E(RHF) =  -2902.88624445     A.U. after    8 cycles
 E2 =    -0.7506747620D+00 EUMP2 =    -0.29036369192157D+04
 E2 =    -0.7504169767D+00 EUMP2 =    -0.29036367466556D+04
 SCF Done:  E(RHF) =  -2902.88638514     A.U. after    8 cycles
 E2 =    -0.7502000302D+00 EUMP2 =    -0.29036365851671D+04
 SCF Done:  E(RHF) =  -2902.88642061     A.U. after    8 cycles
 E2 =    -0.7500172787D+00 EUMP2 =    -0.29036364378903D+04
 SCF Done:  E(RHF) =  -2902.88644283     A.U. after    8 cycles
 E2 =    -0.7498628592D+00 EUMP2 =    -0.29036363056848D+04
 SCF Done:  E(RHF) =  -2902.88645629     A.U. after    8 cycles
 E2 =    -0.7497317530D+00 EUMP2 =    -0.29036361880473D+04
 SCF Done:  E(RHF) =  -2902.88646399     A.U. after    8 cycles
 E2 =    -0.7496197923D+00 EUMP2 =    -0.29036360837840D+04
 SCF Done:  E(RHF) =  -2902.88646787     A.U. after    8 cycles
 E2 =    -0.7495236044D+00 EUMP2 =    -0.29036359914702D+04
 SCF Done:  E(RHF) =  -2902.88646922     A.U. after    8 cycles
 E2 =    -0.7494405059D+00 EUMP2 =    -0.29036359097234D+04
 SCF Done:  E(RHF) =  -2902.88646895     A.U. after    8 cycles
 E2 =    -0.7493683670D+00 EUMP2 =    -0.29036358373162D+04
 SCF Done:  E(RHF) =  -2902.88646771     A.U. after    8 cycles
 E2 =    -0.7493054758D+00 EUMP2 =    -0.29036357731840D+04

                         Standard orientation:
 ---------------------------------------------------------------------
 Center     Atomic      Atomic             Coordinates (Angstroms)
 Number     Number       Type             X           Y           Z
 ---------------------------------------------------------------------
      1          8           0       -3.341237   -0.702433   -0.078306
      2          8           0       -3.332893    0.745116    0.005537
      3          1           0       -4.051412   -1.030191    0.488600
      4          1           0       -2.412500    1.037421    0.029809
      5         36           0        1.662693   -0.009686    0.001770
 ---------------------------------------------------------------------

 SCF Done:  E(RHF) =  -2902.88646596     A.U. after    8 cycles
 E2 =    -0.7492504251D+00 EUMP2 =    -0.29036357163812D+04
 Normal termination of Gaussian 09 at Thu Dec 12 13:12:17 2019.
