 Gaussian 09, Revision C.01,
 Gaussian 09:  EM64L-G09RevC.01 23-Sep-2011

 -------------------------------------
 #p mp4/aug-cc-PVTz int=ultrafine Scan
 -------------------------------------

 (Enter /home/matheus/.gaussian/g09/l101.exe)
 ----
 PTCC
 ----
 Charge =  0 Multiplicity = 1

 SCF Done:  E(RHF) =  -2902.87783827     A.U. after   13 cycles
 E2 =    -0.7576060240D+00 EUMP2 =    -0.29036354442911D+04

 The electronic state is 1-A.
 Alpha  occ. eigenvalues -- -520.18534 -69.92290 -63.02947 -63.02946 -63.02942
 Alpha  occ. eigenvalues --  -20.63096 -20.62815 -10.86956  -8.35175  -8.35157
 Alpha  occ. eigenvalues --   -8.35139  -3.84556  -3.84552  -3.84529  -3.84511
 Alpha  occ. eigenvalues --   -3.84506  -1.46854  -1.21773  -1.17575  -0.75227
 Alpha  occ. eigenvalues --   -0.67478  -0.60172  -0.55224  -0.54483  -0.53905
 Alpha  occ. eigenvalues --   -0.51778  -0.48142
 Alpha virt. eigenvalues --    0.03464   0.04539   0.08706   0.09688   0.11616
 Alpha virt. eigenvalues --    0.12808   0.14404   0.15664   0.18042   0.18857
 Alpha virt. eigenvalues --    0.19092   0.21144   0.22673   0.25874   0.26681

 Mulliken atomic charges:
              1
     1  O   -0.262641
     2  O   -0.296161
     3  H    0.266096
     4  H    0.280298
     5  Kr   0.012409
 Sum of Mulliken atomic charges =   0.00000

 Dipole moment (field-independent basis, Debye):
    X=             -2.4226    Y=             -0.3184    Z=              1.4310  Tot=              2.8316
 Quadrupole moment (field-independent basis, Debye-Ang):
   XX=            -37.0082   YY=            -27.8349   ZZ=            -28.9936
   XY=             -1.5663   XZ=              2.5742   YZ=             -1.8113

 SCF Done:  E(RHF) =  -2902.88051578     A.U. after    9 cycles
 E2 =    -0.7564585618D+00 EUMP2 =    -0.29036369743412D+04
 SCF Done:  E(RHF) =  -2902.88242423     A.U. after    9 cycles
 E2 =    -0.7554820966D+00 EUMP2 =    -0.29036379063249D+04
 SCF Done:  E(RHF) =  -2902.88377736     A.U. after    9 cycles
 E2 =    -0.7546481465D+00 EUMP2 =    -0.29036384255087D+04
 SCF Done:  E(RHF) =  -2902.88473142     A.U. after    9 cycles
 E2 =    -0.7539339742D+00 EUMP2 =    -0.29036386653961D+04
 SCF Done:  E(RHF) =  -2902.88539990     A.U. after    9 cycles
 E2 =    -0.7533218601D+00 EUMP2 =    -0.29036387217592D+04
 SCF Done:  E(RHF) =  -2902.88586479     A.U. after    9 cycles
 E2 =    -0.7527978722D+00 EUMP2 =    -0.29036386626637D+04
 SCF Done:  E(RHF) =  -2902.88618512     A.U. after    8 cycles
 E2 =    -0.7523506003D+00 EUMP2 =    -0.29036385357209D+04
 SCF Done:  E(RHF) =  -2902.88640329     A.U. after    8 cycles
 E2 =    -0.7519702062D+00 EUMP2 =    -0.29036383734989D+04
 SCF Done:  E(RHF) =  -2902.88654976     A.U. after    8 cycles
 E2 =    -0.7516478469D+00 EUMP2 =    -0.29036381976059D+04
 E2 =    -0.7513754192D+00 EUMP2 =    -0.29036380217810D+04
 SCF Done:  E(RHF) =  -2902.88670870     A.U. after    8 cycles
 E2 =    -0.7511454912D+00 EUMP2 =    -0.29036378541930D+04
 SCF Done:  E(RHF) =  -2902.88674782     A.U. after    8 cycles
 E2 =    -0.7509513350D+00 EUMP2 =    -0.29036376991531D+04
 SCF Done:  E(RHF) =  -2902.88677140     A.U. after    8 cycles
 E2 =    -0.7507869861D+00 EUMP2 =    -0.29036375583886D+04
 SCF Done:  E(RHF) =  -2902.88678471     A.U. after    8 cycles
 E2 =    -0.7506472975D+00 EUMP2 =    -0.29036374320077D+04
 SCF Done:  E(RHF) =  -2902.88679127     A.U. after    8 cycles
 E2 =    -0.7505279514D+00 EUMP2 =    -0.29036373192211D+04
 SCF Done:  E(RHF) =  -2902.88679343     A.U. after    7 cycles
 E2 =    -0.7504254180D+00 EUMP2 =    -0.29036372188496D+04
 SCF Done:  E(RHF) =  -2902.88679278     A.U. after    7 cycles
 E2 =    -0.7503368661D+00 EUMP2 =    -0.29036371296447D+04
 SCF Done:  E(RHF) =  -2902.88679040     A.U. after    7 cycles
 E2 =    -0.7502600352D+00 EUMP2 =    -0.29036370504372D+04
 SCF Done:  E(RHF) =  -2902.88678707     A.U. after    7 cycles
 E2 =    -0.7501931037D+00 EUMP2 =    -0.29036369801726D+04

                         Standard orientation:
 ---------------------------------------------------------------------
 Center     Atomic      Atomic             Coordinates (Angstroms)
 Number     Number       Type             X           Y           Z
 ---------------------------------------------------------------------
      1          8           0        3.357487   -0.710635   -0.109567
      2          8           0        3.354268    0.733662    0.018863
      3          1           0        3.051713   -1.085363    0.726637
      4          1           0        2.434924    1.028235    0.053358
      5         36           0       -1.643908   -0.003530   -0.001510
 ---------------------------------------------------------------------

 SCF Done:  E(RHF) =  -2902.88678331     A.U. after    7 cycles
 E2 =    -0.7501345761D+00 EUMP2 =    -0.29036369178875D+04
 Normal termination of Gaussian 09 at Sat Nov 23 17:23:55 2019.
