 Gaussian 09, Revision C.01,
 Gaussian 09:  EM64L-G09RevC.01 23-Sep-2011

 -------------------------------------
 #p mp4/aug-cc-PVTz int=ultrafine Scan
 -------------------------------------

 (Enter /home/matheus/.gaussian/g09/l101.exe)
 ----
 PTCC
 ----
 Charge =  0 Multiplicity = 1

 SCF Done:  E(RHF) =  -2902.87119103     A.U. after   12 cycles
 E2 =    -0.7589157175D+00 EUMP2 =    -0.29036301067471D+04

 The electronic state is 1-A.
 Alpha  occ. eigenvalues -- -520.20013 -69.93770 -63.04427 -63.04426 -63.04423
 Alpha  occ. eigenvalues --  -20.62754 -20.62625 -10.88436  -8.36651  -8.36639
 Alpha  occ. eigenvalues --   -8.36621  -3.86029  -3.86028  -3.86006  -3.85997
 Alpha  occ. eigenvalues --   -3.85992  -1.46773  -1.21535  -1.19130  -0.76703
 Alpha  occ. eigenvalues --   -0.64071  -0.59911  -0.57752  -0.55841  -0.55291
 Alpha  occ. eigenvalues --   -0.54333  -0.46070
 Alpha virt. eigenvalues --    0.03607   0.04605   0.08514   0.09360   0.11392
 Alpha virt. eigenvalues --    0.13536   0.14506   0.16278   0.18221   0.18939
 Alpha virt. eigenvalues --    0.19414   0.20599   0.22927   0.25783   0.25990

 Mulliken atomic charges:
              1
     1  O   -0.262064
     2  O   -0.281222
     3  H    0.259302
     4  H    0.270558
     5  Kr   0.013425
 Sum of Mulliken atomic charges =   0.00000

 Dipole moment (field-independent basis, Debye):
    X=              3.4970    Y=             -0.0910    Z=              0.7062  Tot=              3.5687
 Quadrupole moment (field-independent basis, Debye-Ang):
   XX=            -38.9845   YY=            -28.0289   ZZ=            -29.9858
   XY=              0.3074   XZ=             -0.8748   YZ=             -0.9243

 SCF Done:  E(RHF) =  -2902.87444241     A.U. after   10 cycles
 E2 =    -0.7575629159D+00 EUMP2 =    -0.29036320053277D+04
 SCF Done:  E(RHF) =  -2902.87676192     A.U. after    9 cycles
 E2 =    -0.7564077021D+00 EUMP2 =    -0.29036331696206D+04
 SCF Done:  E(RHF) =  -2902.87840531     A.U. after    9 cycles
 E2 =    -0.7554168339D+00 EUMP2 =    -0.29036338221417D+04
 SCF Done:  E(RHF) =  -2902.87956075     A.U. after    9 cycles
 E2 =    -0.7545648316D+00 EUMP2 =    -0.29036341255859D+04
 SCF Done:  E(RHF) =  -2902.88036584     A.U. after    9 cycles
 E2 =    -0.7538325171D+00 EUMP2 =    -0.29036341983611D+04
 SCF Done:  E(RHF) =  -2902.88092068     A.U. after    9 cycles
 E2 =    -0.7532049958D+00 EUMP2 =    -0.29036341256735D+04
 SCF Done:  E(RHF) =  -2902.88129784     A.U. after    8 cycles
 E2 =    -0.7526698250D+00 EUMP2 =    -0.29036339676601D+04
 SCF Done:  E(RHF) =  -2902.88154981     A.U. after    8 cycles
 E2 =    -0.7522158284D+00 EUMP2 =    -0.29036337656414D+04
 SCF Done:  E(RHF) =  -2902.88171447     A.U. after    8 cycles
 E2 =    -0.7518324783D+00 EUMP2 =    -0.29036335469528D+04
 E2 =    -0.7515098191D+00 EUMP2 =    -0.29036333288115D+04
 SCF Done:  E(RHF) =  -2902.88188269     A.U. after    8 cycles
 E2 =    -0.7512385852D+00 EUMP2 =    -0.29036331212778D+04
 SCF Done:  E(RHF) =  -2902.88191914     A.U. after    8 cycles
 E2 =    -0.7510103915D+00 EUMP2 =    -0.29036329295273D+04
 SCF Done:  E(RHF) =  -2902.88193767     A.U. after    8 cycles
 E2 =    -0.7508178886D+00 EUMP2 =    -0.29036327555589D+04
 SCF Done:  E(RHF) =  -2902.88194462     A.U. after    8 cycles
 E2 =    -0.7506548385D+00 EUMP2 =    -0.29036325994591D+04
 SCF Done:  E(RHF) =  -2902.88194421     A.U. after    7 cycles
 E2 =    -0.7505160895D+00 EUMP2 =    -0.29036324602978D+04
 SCF Done:  E(RHF) =  -2902.88193925     A.U. after    7 cycles
 E2 =    -0.7503974788D+00 EUMP2 =    -0.29036323367248D+04
 SCF Done:  E(RHF) =  -2902.88193163     A.U. after    7 cycles
 E2 =    -0.7502956458D+00 EUMP2 =    -0.29036322272771D+04
 SCF Done:  E(RHF) =  -2902.88192266     A.U. after    7 cycles
 E2 =    -0.7502078595D+00 EUMP2 =    -0.29036321305241D+04
 SCF Done:  E(RHF) =  -2902.88191323     A.U. after    7 cycles
 E2 =    -0.7501318542D+00 EUMP2 =    -0.29036320450878D+04

                         Standard orientation:
 ---------------------------------------------------------------------
 Center     Atomic      Atomic             Coordinates (Angstroms)
 Number     Number       Type             X           Y           Z
 ---------------------------------------------------------------------
      1          8           0       -3.365349   -0.721703   -0.055068
      2          8           0       -3.364686    0.726799    0.010824
      3          1           0       -2.571729   -1.041290    0.393470
      4          1           0       -2.445837    1.024411    0.028109
      5         36           0        1.634940   -0.000663   -0.001879
 ---------------------------------------------------------------------

 SCF Done:  E(RHF) =  -2902.88190392     A.U. after    6 cycles
 E2 =    -0.7500657199D+00 EUMP2 =    -0.29036319696362D+04
 Normal termination of Gaussian 09 at Wed Dec 18 20:22:19 2019.
