 Gaussian 09, Revision C.01,
 Gaussian 09:  EM64L-G09RevC.01 23-Sep-2011

 -------------------------------------
 #p mp4/aug-cc-PVTz int=ultrafine Scan
 -------------------------------------

 (Enter /home/matheus/.gaussian/g09/l101.exe)
 ----
 PTCC
 ----
 Charge =  0 Multiplicity = 1

 SCF Done:  E(RHF) =  -2902.87946470     A.U. after   13 cycles
 E2 =    -0.7567645891D+00 EUMP2 =    -0.29036362292905D+04

 The electronic state is 1-A.
 Alpha  occ. eigenvalues -- -520.17488 -69.91243 -63.01902 -63.01899 -63.01896
 Alpha  occ. eigenvalues --  -20.62932 -20.62623 -10.85908  -8.34131  -8.34107
 Alpha  occ. eigenvalues --   -8.34089  -3.83512  -3.83507  -3.83484  -3.83458
 Alpha  occ. eigenvalues --   -3.83454  -1.46628  -1.21761  -1.16500  -0.72373
 Alpha  occ. eigenvalues --   -0.70381  -0.60992  -0.54166  -0.53431  -0.52932
 Alpha  occ. eigenvalues --   -0.50805  -0.47768
 Alpha virt. eigenvalues --    0.03502   0.04513   0.08909   0.10163   0.11582
 Alpha virt. eigenvalues --    0.12501   0.14860   0.15741   0.17473   0.18713
 Alpha virt. eigenvalues --    0.19137   0.21331   0.23398   0.25813   0.26682

 Mulliken atomic charges:
              1
     1  O   -0.257885
     2  O   -0.307149
     3  H    0.264812
     4  H    0.288286
     5  Kr   0.011936
 Sum of Mulliken atomic charges =   0.00000

 Dipole moment (field-independent basis, Debye):
    X=              0.9442    Y=             -0.3748    Z=              1.3998  Tot=              1.7296
 Quadrupole moment (field-independent basis, Debye-Ang):
   XX=            -31.0614   YY=            -27.9995   ZZ=            -29.2935
   XY=              3.3404   XZ=             -3.7662   YZ=             -1.6078

 SCF Done:  E(RHF) =  -2902.88194273     A.U. after   10 cycles
 E2 =    -0.7556658899D+00 EUMP2 =    -0.29036376086207D+04
 SCF Done:  E(RHF) =  -2902.88370211     A.U. after   10 cycles
 E2 =    -0.7547308416D+00 EUMP2 =    -0.29036384329545D+04
 SCF Done:  E(RHF) =  -2902.88494483     A.U. after   10 cycles
 E2 =    -0.7539319489D+00 EUMP2 =    -0.29036388767783D+04
 SCF Done:  E(RHF) =  -2902.88581788     A.U. after   10 cycles
 E2 =    -0.7532475555D+00 EUMP2 =    -0.29036390654366D+04
 SCF Done:  E(RHF) =  -2902.88642756     A.U. after   10 cycles
 E2 =    -0.7526609709D+00 EUMP2 =    -0.29036390885337D+04
 SCF Done:  E(RHF) =  -2902.88685032     A.U. after    9 cycles
 E2 =    -0.7521591391D+00 EUMP2 =    -0.29036390094609D+04
 SCF Done:  E(RHF) =  -2902.88714094     A.U. after    8 cycles
 E2 =    -0.7517313266D+00 EUMP2 =    -0.29036388722665D+04
 SCF Done:  E(RHF) =  -2902.88733861     A.U. after    8 cycles
 E2 =    -0.7513681490D+00 EUMP2 =    -0.29036387067587D+04
 SCF Done:  E(RHF) =  -2902.88747136     A.U. after    9 cycles
 E2 =    -0.7510610629D+00 EUMP2 =    -0.29036385324189D+04
 E2 =    -0.7508021582D+00 EUMP2 =    -0.29036383613483D+04
 SCF Done:  E(RHF) =  -2902.88761633     A.U. after    8 cycles
 E2 =    -0.7505841222D+00 EUMP2 =    -0.29036382004540D+04
 SCF Done:  E(RHF) =  -2902.88765278     A.U. after    8 cycles
 E2 =    -0.7504003376D+00 EUMP2 =    -0.29036380531175D+04
 SCF Done:  E(RHF) =  -2902.88767545     A.U. after    8 cycles
 E2 =    -0.7502449624D+00 EUMP2 =    -0.29036379204098D+04
 SCF Done:  E(RHF) =  -2902.88768901     A.U. after    8 cycles
 E2 =    -0.7501129869D+00 EUMP2 =    -0.29036378020008D+04
 SCF Done:  E(RHF) =  -2902.88769659     A.U. after    8 cycles
 E2 =    -0.7500002403D+00 EUMP2 =    -0.29036376968286D+04
 SCF Done:  E(RHF) =  -2902.88770022     A.U. after    8 cycles
 E2 =    -0.7499033391D+00 EUMP2 =    -0.29036376035612D+04
 SCF Done:  E(RHF) =  -2902.88770129     A.U. after    8 cycles
 E2 =    -0.7498195861D+00 EUMP2 =    -0.29036375208753D+04
 SCF Done:  E(RHF) =  -2902.88770074     A.U. after    8 cycles
 E2 =    -0.7497468396D+00 EUMP2 =    -0.29036374475783D+04
 SCF Done:  E(RHF) =  -2902.88769924     A.U. after    8 cycles
 E2 =    -0.7496833810D+00 EUMP2 =    -0.29036373826249D+04

                         Standard orientation:
 ---------------------------------------------------------------------
 Center     Atomic      Atomic             Coordinates (Angstroms)
 Number     Number       Type             X           Y           Z
 ---------------------------------------------------------------------
      1          8           0       -3.345053   -0.702336   -0.105259
      2          8           0       -3.337899    0.743003    0.010688
      3          1           0       -3.813958   -1.060833    0.659439
      4          1           0       -2.417764    1.035288    0.043520
      5         36           0        1.658204   -0.008328    0.001489
 ---------------------------------------------------------------------

 SCF Done:  E(RHF) =  -2902.88769728     A.U. after    8 cycles
 E2 =    -0.7496278032D+00 EUMP2 =    -0.29036373250807D+04
 Normal termination of Gaussian 09 at Fri Dec 13 01:31:18 2019.
