 Gaussian 09, Revision C.01,
 Gaussian 09:  EM64L-G09RevC.01 23-Sep-2011

 -------------------------------------
 #p mp4/aug-cc-PVTz int=ultrafine Scan
 -------------------------------------

 (Enter /home/matheus/.gaussian/g09/l101.exe)
 ----
 PTCC
 ----
 Charge =  0 Multiplicity = 1

 SCF Done:  E(RHF) =  -2902.87481583     A.U. after   13 cycles
 E2 =    -0.7581171106D+00 EUMP2 =    -0.29036329329441D+04

 The electronic state is 1-A.
 Alpha  occ. eigenvalues -- -520.19249 -69.93006 -63.03663 -63.03662 -63.03659
 Alpha  occ. eigenvalues --  -20.62988 -20.62755 -10.87672  -8.35889  -8.35874
 Alpha  occ. eigenvalues --   -8.35856  -3.85269  -3.85266  -3.85244  -3.85230
 Alpha  occ. eigenvalues --   -3.85225  -1.46854  -1.21686  -1.18321  -0.76092
 Alpha  occ. eigenvalues --   -0.65838  -0.60018  -0.56326  -0.55162  -0.54584
 Alpha  occ. eigenvalues --   -0.53247  -0.47013
 Alpha virt. eigenvalues --    0.03533   0.04568   0.08585   0.09518   0.11517
 Alpha virt. eigenvalues --    0.13149   0.14431   0.15755   0.18200   0.18900
 Alpha virt. eigenvalues --    0.19169   0.21040   0.22568   0.25938   0.26379

 Mulliken atomic charges:
              1
     1  O   -0.262270
     2  O   -0.289959
     3  H    0.263169
     4  H    0.276318
     5  Kr   0.012743
 Sum of Mulliken atomic charges =   0.00000

 Dipole moment (field-independent basis, Debye):
    X=             -3.0087    Y=             -0.2093    Z=              1.1257  Tot=              3.2192
 Quadrupole moment (field-independent basis, Debye-Ang):
   XX=            -38.3058   YY=            -27.9214   ZZ=            -29.4517
   XY=             -0.8381   XZ=              1.6581   YZ=             -1.4514

 SCF Done:  E(RHF) =  -2902.87771218     A.U. after    9 cycles
 E2 =    -0.7568925130D+00 EUMP2 =    -0.29036346046979D+04
 SCF Done:  E(RHF) =  -2902.87977898     A.U. after    9 cycles
 E2 =    -0.7558485941D+00 EUMP2 =    -0.29036356275749D+04
 SCF Done:  E(RHF) =  -2902.88124533     A.U. after    9 cycles
 E2 =    -0.7549554304D+00 EUMP2 =    -0.29036362007644D+04
 SCF Done:  E(RHF) =  -2902.88227913     A.U. after    9 cycles
 E2 =    -0.7541895721D+00 EUMP2 =    -0.29036364687002D+04
 SCF Done:  E(RHF) =  -2902.88300266     A.U. after    9 cycles
 E2 =    -0.7535328874D+00 EUMP2 =    -0.29036365355449D+04
 SCF Done:  E(RHF) =  -2902.88350459     A.U. after    9 cycles
 E2 =    -0.7529710138D+00 EUMP2 =    -0.29036364756049D+04
 SCF Done:  E(RHF) =  -2902.88384901     A.U. after    8 cycles
 E2 =    -0.7524919289D+00 EUMP2 =    -0.29036363409383D+04
 SCF Done:  E(RHF) =  -2902.88408212     A.U. after    8 cycles
 E2 =    -0.7520850077D+00 EUMP2 =    -0.29036361671309D+04
 SCF Done:  E(RHF) =  -2902.88423719     A.U. after    8 cycles
 E2 =    -0.7517405228D+00 EUMP2 =    -0.29036359777124D+04
 E2 =    -0.7514495290D+00 EUMP2 =    -0.29036357875959D+04
 SCF Done:  E(RHF) =  -2902.88440177     A.U. after    8 cycles
 E2 =    -0.7512038912D+00 EUMP2 =    -0.29036356056633D+04
 SCF Done:  E(RHF) =  -2902.88444033     A.U. after    8 cycles
 E2 =    -0.7509963568D+00 EUMP2 =    -0.29036354366884D+04
 SCF Done:  E(RHF) =  -2902.88446214     A.U. after    8 cycles
 E2 =    -0.7508205996D+00 EUMP2 =    -0.29036352827351D+04
 SCF Done:  E(RHF) =  -2902.88447295     A.U. after    8 cycles
 E2 =    -0.7506712241D+00 EUMP2 =    -0.29036351441698D+04
 SCF Done:  E(RHF) =  -2902.88447666     A.U. after    7 cycles
 E2 =    -0.7505437175D+00 EUMP2 =    -0.29036350203802D+04
 SCF Done:  E(RHF) =  -2902.88447590     A.U. after    7 cycles
 E2 =    -0.7504343710D+00 EUMP2 =    -0.29036349102727D+04
 SCF Done:  E(RHF) =  -2902.88447242     A.U. after    7 cycles
 E2 =    -0.7503401538D+00 EUMP2 =    -0.29036348125716D+04
 SCF Done:  E(RHF) =  -2902.88446740     A.U. after    7 cycles
 E2 =    -0.7502585951D+00 EUMP2 =    -0.29036347259901D+04
 SCF Done:  E(RHF) =  -2902.88446163     A.U. after    7 cycles
 E2 =    -0.7501876659D+00 EUMP2 =    -0.29036346492962D+04

                         Standard orientation:
 ---------------------------------------------------------------------
 Center     Atomic      Atomic             Coordinates (Angstroms)
 Number     Number       Type             X           Y           Z
 ---------------------------------------------------------------------
      1          8           0        3.361997   -0.716568   -0.086717
      2          8           0        3.360237    0.729768    0.016285
      3          1           0        2.776556   -1.065308    0.597969
      4          1           0        2.441175    1.025973    0.043562
      5         36           0       -1.638767   -0.001841   -0.002169
 ---------------------------------------------------------------------

 SCF Done:  E(RHF) =  -2902.88445565     A.U. after    7 cycles
 E2 =    -0.7501256856D+00 EUMP2 =    -0.29036345813322D+04
 Normal termination of Gaussian 09 at Fri Nov 22 14:24:03 2019.
