 Gaussian 09, Revision C.01,
 Gaussian 09:  EM64L-G09RevC.01 23-Sep-2011

 -------------------------------------
 #p mp4/aug-cc-PVTz int=ultrafine Scan
 -------------------------------------

 (Enter /home/matheus/.gaussian/g09/l101.exe)
 ----
 PTCC
 ----
 Charge =  0 Multiplicity = 1

 SCF Done:  E(RHF) =  -2902.87886328     A.U. after   13 cycles
 E2 =    -0.7574288313D+00 EUMP2 =    -0.29036362921162D+04

 The electronic state is 1-A.
 Alpha  occ. eigenvalues -- -520.18234 -69.91990 -63.02648 -63.02646 -63.02642
 Alpha  occ. eigenvalues --  -20.63102 -20.62813 -10.86656  -8.34876  -8.34856
 Alpha  occ. eigenvalues --   -8.34838  -3.84257  -3.84253  -3.84230  -3.84209
 Alpha  occ. eigenvalues --   -3.84205  -1.46827  -1.21792  -1.17266  -0.74717
 Alpha  occ. eigenvalues --   -0.68206  -0.60273  -0.54835  -0.54190  -0.53620
 Alpha  occ. eigenvalues --   -0.50955  -0.48731
 Alpha virt. eigenvalues --    0.03447   0.04532   0.08768   0.09775   0.11644
 Alpha virt. eigenvalues --    0.12698   0.14420   0.15677   0.17929   0.18838
 Alpha virt. eigenvalues --    0.19087   0.21162   0.22791   0.25791   0.26773

 Mulliken atomic charges:
              1
     1  O   -0.262052
     2  O   -0.298965
     3  H    0.266123
     4  H    0.282533
     5  Kr   0.012361
 Sum of Mulliken atomic charges =   0.00000

 Dipole moment (field-independent basis, Debye):
    X=              2.1128    Y=             -0.3577    Z=              1.5225  Tot=              2.6286
 Quadrupole moment (field-independent basis, Debye-Ang):
   XX=            -36.0877   YY=            -27.8193   ZZ=            -28.8695
   XY=              1.9652   XZ=             -3.0165   YZ=             -1.9023

 SCF Done:  E(RHF) =  -2902.88147648     A.U. after    9 cycles
 E2 =    -0.7563022121D+00 EUMP2 =    -0.29036377786903D+04
 SCF Done:  E(RHF) =  -2902.88333740     A.U. after    9 cycles
 E2 =    -0.7553440393D+00 EUMP2 =    -0.29036386814407D+04
 SCF Done:  E(RHF) =  -2902.88465577     A.U. after    9 cycles
 E2 =    -0.7545259749D+00 EUMP2 =    -0.29036391817494D+04
 SCF Done:  E(RHF) =  -2902.88558472     A.U. after    9 cycles
 E2 =    -0.7538254238D+00 EUMP2 =    -0.29036394101453D+04
 SCF Done:  E(RHF) =  -2902.88623533     A.U. after    9 cycles
 E2 =    -0.7532248662D+00 EUMP2 =    -0.29036394601929D+04
 SCF Done:  E(RHF) =  -2902.88668773     A.U. after    9 cycles
 E2 =    -0.7527106403D+00 EUMP2 =    -0.29036393983750D+04
 SCF Done:  E(RHF) =  -2902.88699956     A.U. after    8 cycles
 E2 =    -0.7522716471D+00 EUMP2 =    -0.29036392712029D+04
 SCF Done:  E(RHF) =  -2902.88721213     A.U. after    8 cycles
 E2 =    -0.7518983437D+00 EUMP2 =    -0.29036391104759D+04
 SCF Done:  E(RHF) =  -2902.88735512     A.U. after    8 cycles
 E2 =    -0.7515821327D+00 EUMP2 =    -0.29036389372531D+04
 E2 =    -0.7513150818D+00 EUMP2 =    -0.29036387648481D+04
 SCF Done:  E(RHF) =  -2902.88751122     A.U. after    8 cycles
 E2 =    -0.7510898667D+00 EUMP2 =    -0.29036386010853D+04
 SCF Done:  E(RHF) =  -2902.88755017     A.U. after    8 cycles
 E2 =    -0.7508998244D+00 EUMP2 =    -0.29036384499949D+04
 SCF Done:  E(RHF) =  -2902.88757405     A.U. after    8 cycles
 E2 =    -0.7507390378D+00 EUMP2 =    -0.29036383130885D+04
 SCF Done:  E(RHF) =  -2902.88758792     A.U. after    8 cycles
 E2 =    -0.7506024087D+00 EUMP2 =    -0.29036381903294D+04
 SCF Done:  E(RHF) =  -2902.88759517     A.U. after    8 cycles
 E2 =    -0.7504856762D+00 EUMP2 =    -0.29036380808511D+04
 SCF Done:  E(RHF) =  -2902.88759808     A.U. after    8 cycles
 E2 =    -0.7503853748D+00 EUMP2 =    -0.29036379834536D+04
 SCF Done:  E(RHF) =  -2902.88759817     A.U. after    8 cycles
 E2 =    -0.7502987366D+00 EUMP2 =    -0.29036378969046D+04
 SCF Done:  E(RHF) =  -2902.88759651     A.U. after    7 cycles
 E2 =    -0.7502235591D+00 EUMP2 =    -0.29036378200716D+04
 SCF Done:  E(RHF) =  -2902.88759387     A.U. after    7 cycles
 E2 =    -0.7501580722D+00 EUMP2 =    -0.29036377519443D+04

                         Standard orientation:
 ---------------------------------------------------------------------
 Center     Atomic      Atomic             Coordinates (Angstroms)
 Number     Number       Type             X           Y           Z
 ---------------------------------------------------------------------
      1          8           0       -3.354972   -0.707931   -0.116326
      2          8           0       -3.350947    0.735757    0.018764
      3          1           0       -3.205209   -1.089993    0.758176
      4          1           0       -2.431446    1.029584    0.055369
      5         36           0        1.646778   -0.004506   -0.000918
 ---------------------------------------------------------------------

 SCF Done:  E(RHF) =  -2902.88759078     A.U. after    7 cycles
 E2 =    -0.7501008179D+00 EUMP2 =    -0.29036376915958D+04
 Normal termination of Gaussian 09 at Sat Dec 14 19:35:30 2019.
