 Gaussian 09, Revision C.01,
 Gaussian 09:  EM64L-G09RevC.01 23-Sep-2011

 -------------------------------------
 #p mp4/aug-cc-PVTz int=ultrafine Scan
 -------------------------------------

 (Enter /home/matheus/.gaussian/g09/l101.exe)
 ----
 PTCC
 ----
 Charge =  0 Multiplicity = 1

 SCF Done:  E(RHF) =  -2902.87980605     A.U. after   13 cycles
 E2 =    -0.7571131148D+00 EUMP2 =    -0.29036369191669D+04

 The electronic state is 1-A.
 Alpha  occ. eigenvalues -- -520.17773 -69.91528 -63.02186 -63.02184 -63.02181
 Alpha  occ. eigenvalues --  -20.63047 -20.62749 -10.86194  -8.34416  -8.34393
 Alpha  occ. eigenvalues --   -8.34375  -3.83797  -3.83792  -3.83769  -3.83745
 Alpha  occ. eigenvalues --   -3.83741  -1.46740  -1.21793  -1.16793  -0.73585
 Alpha  occ. eigenvalues --   -0.69445  -0.60558  -0.54340  -0.53729  -0.53187
 Alpha  occ. eigenvalues --   -0.49889  -0.49269
 Alpha virt. eigenvalues --    0.03454   0.04522   0.08864   0.09960   0.11648
 Alpha virt. eigenvalues --    0.12564   0.14553   0.15709   0.17689   0.18810
 Alpha virt. eigenvalues --    0.19062   0.21240   0.23048   0.25670   0.26799

 Mulliken atomic charges:
              1
     1  O   -0.260336
     2  O   -0.304139
     3  H    0.265270
     4  H    0.286507
     5  Kr   0.012698
 Sum of Mulliken atomic charges =   0.00000

 Dipole moment (field-independent basis, Debye):
    X=             -1.4983    Y=             -0.3932    Z=              1.5610  Tot=              2.1991
 Quadrupole moment (field-independent basis, Debye-Ang):
   XX=            -33.7586   YY=            -27.8658   ZZ=            -28.9071
   XY=             -2.7304   XZ=              3.6719   YZ=             -1.8811

 SCF Done:  E(RHF) =  -2902.88233863     A.U. after    9 cycles
 E2 =    -0.7560088702D+00 EUMP2 =    -0.29036383475027D+04
 SCF Done:  E(RHF) =  -2902.88413892     A.U. after    9 cycles
 E2 =    -0.7550693435D+00 EUMP2 =    -0.29036392082658D+04
 SCF Done:  E(RHF) =  -2902.88541212     A.U. after   10 cycles
 E2 =    -0.7542666949D+00 EUMP2 =    -0.29036396788188D+04
 SCF Done:  E(RHF) =  -2902.88630777     A.U. after    9 cycles
 E2 =    -0.7535789521D+00 EUMP2 =    -0.29036398867242D+04
 SCF Done:  E(RHF) =  -2902.88693412     A.U. after    9 cycles
 E2 =    -0.7529892297D+00 EUMP2 =    -0.29036399233529D+04
 SCF Done:  E(RHF) =  -2902.88736912     A.U. after    9 cycles
 E2 =    -0.7524843887D+00 EUMP2 =    -0.29036398535092D+04
 SCF Done:  E(RHF) =  -2902.88766867     A.U. after    8 cycles
 E2 =    -0.7520537035D+00 EUMP2 =    -0.29036397223782D+04
 SCF Done:  E(RHF) =  -2902.88787282     A.U. after    8 cycles
 E2 =    -0.7516878380D+00 EUMP2 =    -0.29036395606599D+04
 SCF Done:  E(RHF) =  -2902.88801021     A.U. after    8 cycles
 E2 =    -0.7513782940D+00 EUMP2 =    -0.29036393885041D+04
 E2 =    -0.7511171781D+00 EUMP2 =    -0.29036392184850D+04
 SCF Done:  E(RHF) =  -2902.88816066     A.U. after    8 cycles
 E2 =    -0.7508971890D+00 EUMP2 =    -0.29036390578534D+04
 SCF Done:  E(RHF) =  -2902.88819853     A.U. after    8 cycles
 E2 =    -0.7507116939D+00 EUMP2 =    -0.29036389102215D+04
 SCF Done:  E(RHF) =  -2902.88822200     A.U. after    8 cycles
 E2 =    -0.7505548316D+00 EUMP2 =    -0.29036387768302D+04
 SCF Done:  E(RHF) =  -2902.88823591     A.U. after    8 cycles
 E2 =    -0.7504215729D+00 EUMP2 =    -0.29036386574828D+04
 SCF Done:  E(RHF) =  -2902.88824350     A.U. after    8 cycles
 E2 =    -0.7503077292D+00 EUMP2 =    -0.29036385512281D+04
 SCF Done:  E(RHF) =  -2902.88824693     A.U. after    8 cycles
 E2 =    -0.7502099020D+00 EUMP2 =    -0.29036384568273D+04
 SCF Done:  E(RHF) =  -2902.88824765     A.U. after    8 cycles
 E2 =    -0.7501253801D+00 EUMP2 =    -0.29036383730326D+04
 SCF Done:  E(RHF) =  -2902.88824670     A.U. after    8 cycles
 E2 =    -0.7500520068D+00 EUMP2 =    -0.29036382987058D+04
 SCF Done:  E(RHF) =  -2902.88824479     A.U. after    8 cycles
 E2 =    -0.7499880464D+00 EUMP2 =    -0.29036382328338D+04

                         Standard orientation:
 ---------------------------------------------------------------------
 Center     Atomic      Atomic             Coordinates (Angstroms)
 Number     Number       Type             X           Y           Z
 ---------------------------------------------------------------------
      1          8           0        3.349822   -0.703971   -0.118573
      2          8           0        3.344163    0.739772    0.015865
      3          1           0        3.520251   -1.084259    0.752914
      4          1           0        2.424338    1.032507    0.053058
      5         36           0       -1.652680   -0.006518    0.000436
 ---------------------------------------------------------------------

 SCF Done:  E(RHF) =  -2902.88824242     A.U. after    8 cycles
 E2 =    -0.7499320734D+00 EUMP2 =    -0.29036381744947D+04
 Normal termination of Gaussian 09 at Mon Dec  2 05:34:36 2019.
