 Gaussian 09, Revision C.01,
 Gaussian 09:  EM64L-G09RevC.01 23-Sep-2011

 -------------------------------------
 #p mp4/aug-cc-PVTz int=ultrafine Scan
 -------------------------------------

 (Enter /home/matheus/.gaussian/g09/l101.exe)
 ----
 PTCC
 ----
 Charge =  0 Multiplicity = 1

 SCF Done:  E(RHF) =  -2902.87897537     A.U. after   13 cycles
 E2 =    -0.7565645314D+00 EUMP2 =    -0.29036355398980D+04

 The electronic state is 1-A.
 Alpha  occ. eigenvalues -- -520.17402 -69.91157 -63.01815 -63.01813 -63.01809
 Alpha  occ. eigenvalues --  -20.62865 -20.62548 -10.85821  -8.34044  -8.34019
 Alpha  occ. eigenvalues --   -8.34002  -3.83425  -3.83420  -3.83397  -3.83371
 Alpha  occ. eigenvalues --   -3.83367  -1.46572  -1.21740  -1.16411  -0.71781
 Alpha  occ. eigenvalues --   -0.70726  -0.61268  -0.54171  -0.53335  -0.52862
 Alpha  occ. eigenvalues --   -0.51146  -0.47119
 Alpha virt. eigenvalues --    0.03530   0.04510   0.08912   0.10271   0.11537
 Alpha virt. eigenvalues --    0.12488   0.15064   0.15795   0.17383   0.18587
 Alpha virt. eigenvalues --    0.19258   0.21350   0.23697   0.25898   0.26653

 Mulliken atomic charges:
              1
     1  O   -0.257096
     2  O   -0.307965
     3  H    0.265200
     4  H    0.288799
     5  Kr   0.011062
 Sum of Mulliken atomic charges =   0.00000

 Dipole moment (field-independent basis, Debye):
    X=              0.7084    Y=             -0.3522    Z=              1.2481  Tot=              1.4777
 Quadrupole moment (field-independent basis, Debye-Ang):
   XX=            -29.7324   YY=            -28.0811   ZZ=            -29.5679
   XY=              3.5658   XZ=             -3.5377   YZ=             -1.3974

 SCF Done:  E(RHF) =  -2902.88142988     A.U. after   10 cycles
 E2 =    -0.7554668011D+00 EUMP2 =    -0.29036368966836D+04
 SCF Done:  E(RHF) =  -2902.88317207     A.U. after   10 cycles
 E2 =    -0.7545330518D+00 EUMP2 =    -0.29036377051236D+04
 SCF Done:  E(RHF) =  -2902.88440222     A.U. after   10 cycles
 E2 =    -0.7537354647D+00 EUMP2 =    -0.29036381376862D+04
 SCF Done:  E(RHF) =  -2902.88526606     A.U. after   10 cycles
 E2 =    -0.7530522211D+00 EUMP2 =    -0.29036383182773D+04
 SCF Done:  E(RHF) =  -2902.88586894     A.U. after   10 cycles
 E2 =    -0.7524665936D+00 EUMP2 =    -0.29036383355287D+04
 SCF Done:  E(RHF) =  -2902.88628664     A.U. after    9 cycles
 E2 =    -0.7519655614D+00 EUMP2 =    -0.29036382522011D+04
 SCF Done:  E(RHF) =  -2902.88657349     A.U. after    8 cycles
 E2 =    -0.7515384477D+00 EUMP2 =    -0.29036381119405D+04
 SCF Done:  E(RHF) =  -2902.88676838     A.U. after    8 cycles
 E2 =    -0.7511759202D+00 EUMP2 =    -0.29036379442958D+04
 SCF Done:  E(RHF) =  -2902.88689910     A.U. after    8 cycles
 E2 =    -0.7508694676D+00 EUMP2 =    -0.29036377685664D+04
 E2 =    -0.7506111786D+00 EUMP2 =    -0.29036375966976D+04
 SCF Done:  E(RHF) =  -2902.88704173     A.U. after    8 cycles
 E2 =    -0.7503937472D+00 EUMP2 =    -0.29036374354801D+04
 SCF Done:  E(RHF) =  -2902.88707763     A.U. after    8 cycles
 E2 =    -0.7502105396D+00 EUMP2 =    -0.29036372881730D+04
 SCF Done:  E(RHF) =  -2902.88710004     A.U. after    8 cycles
 E2 =    -0.7500557018D+00 EUMP2 =    -0.29036371557410D+04
 SCF Done:  E(RHF) =  -2902.88711355     A.U. after    8 cycles
 E2 =    -0.7499242162D+00 EUMP2 =    -0.29036370377616D+04
 SCF Done:  E(RHF) =  -2902.88712119     A.U. after    8 cycles
 E2 =    -0.7498119086D+00 EUMP2 =    -0.29036369330982D+04
 SCF Done:  E(RHF) =  -2902.88712497     A.U. after    8 cycles
 E2 =    -0.7497153970D+00 EUMP2 =    -0.29036368403624D+04
 SCF Done:  E(RHF) =  -2902.88712620     A.U. after    8 cycles
 E2 =    -0.7496319890D+00 EUMP2 =    -0.29036367581931D+04
 SCF Done:  E(RHF) =  -2902.88712583     A.U. after    8 cycles
 E2 =    -0.7495595496D+00 EUMP2 =    -0.29036366853765D+04
 SCF Done:  E(RHF) =  -2902.88712449     A.U. after    8 cycles
 E2 =    -0.7494963663D+00 EUMP2 =    -0.29036366208568D+04

                         Standard orientation:
 ---------------------------------------------------------------------
 Center     Atomic      Atomic             Coordinates (Angstroms)
 Number     Number       Type             X           Y           Z
 ---------------------------------------------------------------------
      1          8           0       -3.342996   -0.702237   -0.093274
      2          8           0       -3.335200    0.744203    0.007973
      3          1           0       -3.941638   -1.045570    0.582674
      4          1           0       -2.414927    1.036458    0.036974
      5         36           0        1.660615   -0.009073    0.001743
 ---------------------------------------------------------------------

 SCF Done:  E(RHF) =  -2902.88712266     A.U. after    8 cycles
 E2 =    -0.7494410357D+00 EUMP2 =    -0.29036365636960D+04
 Normal termination of Gaussian 09 at Thu Dec 12 18:04:09 2019.
