 Gaussian 09, Revision C.01,
 Gaussian 09:  EM64L-G09RevC.01 23-Sep-2011

 ----------------------------------------------------------------------
 #p wb97xd/aug-cc-PVTz iop(3/107=0250000000) iop(3/108=0250000000) int=
 ultrafine Scan
 ----------------------------------------------------------------------

 (Enter /home/matheus/.gaussian/g09/l101.exe)
 ---
 TCC
 ---
 Charge =  0 Multiplicity = 1

 SCF Done:  E(RwB97XD) =  -2905.42684263     A.U. after   12 cycles

 The electronic state is 1-A.
 Alpha  occ. eigenvalues -- -513.09810 -67.36637 -60.91517 -60.91506 -60.91497
 Alpha  occ. eigenvalues --  -19.34105 -19.33748  -9.81966  -7.51299  -7.51262
 Alpha  occ. eigenvalues --   -7.51234  -3.37981  -3.37974  -3.37953  -3.37923
 Alpha  occ. eigenvalues --   -3.37920  -1.24653  -1.03350  -1.02594  -0.67551
 Alpha  occ. eigenvalues --   -0.58424  -0.54004  -0.50342  -0.49989  -0.49078
 Alpha  occ. eigenvalues --   -0.42356  -0.40274
 Alpha virt. eigenvalues --    0.03427   0.04368   0.08379   0.09526   0.10274
 Alpha virt. eigenvalues --    0.11846   0.13136   0.14198   0.17319   0.17921
 Alpha virt. eigenvalues --    0.18120   0.19082   0.20304   0.22308   0.23207

 Mulliken atomic charges:
              1
     1  O   -0.220737
     2  O   -0.259287
     3  H    0.227053
     4  H    0.243760
     5  Kr   0.009211
 Sum of Mulliken atomic charges =   0.00000

 Dipole moment (field-independent basis, Debye):
    X=             -2.0427    Y=             -0.3713    Z=              1.4317  Tot=              2.5220
 Quadrupole moment (field-independent basis, Debye-Ang):
   XX=            -35.7046   YY=            -27.8694   ZZ=            -29.0330
   XY=             -1.8976   XZ=              2.8435   YZ=             -1.8115

 SCF Done:  E(RwB97XD) =  -2905.42870524     A.U. after    9 cycles
 SCF Done:  E(RwB97XD) =  -2905.42992450     A.U. after    9 cycles
 SCF Done:  E(RwB97XD) =  -2905.43070074     A.U. after    9 cycles
 SCF Done:  E(RwB97XD) =  -2905.43115733     A.U. after    9 cycles
 SCF Done:  E(RwB97XD) =  -2905.43140506     A.U. after    9 cycles
 SCF Done:  E(RwB97XD) =  -2905.43150830     A.U. after    9 cycles
 SCF Done:  E(RwB97XD) =  -2905.43152564     A.U. after    9 cycles
 SCF Done:  E(RwB97XD) =  -2905.43148394     A.U. after    8 cycles
 SCF Done:  E(RwB97XD) =  -2905.43140887     A.U. after    8 cycles
 SCF Done:  E(RwB97XD) =  -2905.43121917     A.U. after    8 cycles
 SCF Done:  E(RwB97XD) =  -2905.43111985     A.U. after    8 cycles
 SCF Done:  E(RwB97XD) =  -2905.43102149     A.U. after    8 cycles
 SCF Done:  E(RwB97XD) =  -2905.43093092     A.U. after    8 cycles
 SCF Done:  E(RwB97XD) =  -2905.43084679     A.U. after    8 cycles
 SCF Done:  E(RwB97XD) =  -2905.43076744     A.U. after    8 cycles
 SCF Done:  E(RwB97XD) =  -2905.43069645     A.U. after    8 cycles
 SCF Done:  E(RwB97XD) =  -2905.43063361     A.U. after    7 cycles
 SCF Done:  E(RwB97XD) =  -2905.43057588     A.U. after    7 cycles

                         Standard orientation:
 ---------------------------------------------------------------------
 Center     Atomic      Atomic             Coordinates (Angstroms)
 Number     Number       Type             X           Y           Z
 ---------------------------------------------------------------------
      1          8           0        3.354972   -0.707931   -0.116326
      2          8           0        3.350947    0.735757    0.018764
      3          1           0        3.205209   -1.089993    0.758176
      4          1           0        2.431446    1.029584    0.055369
      5         36           0       -1.646778   -0.004506   -0.000918
 ---------------------------------------------------------------------

 SCF Done:  E(RwB97XD) =  -2905.43052517     A.U. after    7 cycles
 Normal termination of Gaussian 09 at Thu Apr 16 10:07:56 2020.
