 Gaussian 09, Revision C.01,
 Gaussian 09:  EM64L-G09RevC.01 23-Sep-2011

 ----------------------------------------------------------------------
 #p wb97xd/aug-cc-PVTz iop(3/107=0250000000) iop(3/108=0250000000) int=
 ultrafine Scan
 ----------------------------------------------------------------------

 (Enter /home/matheus/.gaussian/g09/l101.exe)
 ---
 TCC
 ---
 Charge =  0 Multiplicity = 1

 SCF Done:  E(RwB97XD) =  -2905.42557009     A.U. after   13 cycles

 The electronic state is 1-A.
 Alpha  occ. eigenvalues -- -513.08982 -67.35809 -60.90690 -60.90676 -60.90668
 Alpha  occ. eigenvalues --  -19.33831 -19.33435  -9.81136  -7.50474  -7.50427
 Alpha  occ. eigenvalues --   -7.50404  -3.37154  -3.37145  -3.37127  -3.37089
 Alpha  occ. eigenvalues --   -3.37087  -1.24351  -1.03299  -1.01802  -0.65410
 Alpha  occ. eigenvalues --   -0.61224  -0.52592  -0.49649  -0.49116  -0.48480
 Alpha  occ. eigenvalues --   -0.44418  -0.37781
 Alpha virt. eigenvalues --    0.03629   0.04339   0.08178   0.10006   0.10721
 Alpha virt. eigenvalues --    0.11725   0.13623   0.14322   0.16859   0.17794
 Alpha virt. eigenvalues --    0.18596   0.19228   0.20733   0.22616   0.23675

 Mulliken atomic charges:
              1
     1  O   -0.195243
     2  O   -0.270674
     3  H    0.210279
     4  H    0.248906
     5  Kr   0.006732
 Sum of Mulliken atomic charges =   0.00000

 Dipole moment (field-independent basis, Debye):
    X=             -0.5226    Y=             -0.3452    Z=              0.9950  Tot=              1.1757
 Quadrupole moment (field-independent basis, Debye-Ang):
   XX=            -28.4751   YY=            -28.1988   ZZ=            -30.0168
   XY=             -3.6041   XZ=              2.9873   YZ=             -1.0952

 SCF Done:  E(RwB97XD) =  -2905.42727778     A.U. after    9 cycles
 SCF Done:  E(RwB97XD) =  -2905.42838958     A.U. after    9 cycles
 SCF Done:  E(RwB97XD) =  -2905.42909996     A.U. after    9 cycles
 SCF Done:  E(RwB97XD) =  -2905.42952541     A.U. after    9 cycles
 SCF Done:  E(RwB97XD) =  -2905.42976128     A.U. after    9 cycles
 SCF Done:  E(RwB97XD) =  -2905.42986366     A.U. after    9 cycles
 SCF Done:  E(RwB97XD) =  -2905.42989049     A.U. after    9 cycles
 SCF Done:  E(RwB97XD) =  -2905.42986611     A.U. after    9 cycles
 SCF Done:  E(RwB97XD) =  -2905.42980719     A.U. after    9 cycles
 SCF Done:  E(RwB97XD) =  -2905.42965144     A.U. after    8 cycles
 SCF Done:  E(RwB97XD) =  -2905.42956704     A.U. after    8 cycles
 SCF Done:  E(RwB97XD) =  -2905.42948170     A.U. after    8 cycles
 SCF Done:  E(RwB97XD) =  -2905.42940321     A.U. after    8 cycles
 SCF Done:  E(RwB97XD) =  -2905.42932873     A.U. after    8 cycles
 SCF Done:  E(RwB97XD) =  -2905.42925843     A.U. after    8 cycles
 SCF Done:  E(RwB97XD) =  -2905.42919542     A.U. after    8 cycles
 SCF Done:  E(RwB97XD) =  -2905.42913937     A.U. after    8 cycles
 SCF Done:  E(RwB97XD) =  -2905.42908788     A.U. after    8 cycles

                         Standard orientation:
 ---------------------------------------------------------------------
 Center     Atomic      Atomic             Coordinates (Angstroms)
 Number     Number       Type             X           Y           Z
 ---------------------------------------------------------------------
      1          8           0        3.341237   -0.702433   -0.078306
      2          8           0        3.332893    0.745116    0.005537
      3          1           0        4.051412   -1.030191    0.488600
      4          1           0        2.412500    1.037421    0.029809
      5         36           0       -1.662693   -0.009686    0.001770
 ---------------------------------------------------------------------

 SCF Done:  E(RwB97XD) =  -2905.42904224     A.U. after    8 cycles
 Normal termination of Gaussian 09 at Thu Apr 16 10:58:59 2020.
