 Gaussian 09, Revision C.01,
 Gaussian 09:  EM64L-G09RevC.01 23-Sep-2011

 ----------------------------------------------------------------------
 #p wb97xd/aug-cc-PVTz iop(3/107=0250000000) iop(3/108=0250000000) int=
 ultrafine Scan
 ----------------------------------------------------------------------

 (Enter /home/matheus/.gaussian/g09/l101.exe)
 ---
 TCC
 ---
 Charge =  0 Multiplicity = 1

 SCF Done:  E(RwB97XD) =  -2905.42696180     A.U. after   13 cycles

 The electronic state is 1-A.
 Alpha  occ. eigenvalues -- -513.09105 -67.35931 -60.90812 -60.90799 -60.90791
 Alpha  occ. eigenvalues --  -19.33964 -19.33581  -9.81260  -7.50596  -7.50552
 Alpha  occ. eigenvalues --   -7.50526  -3.37277  -3.37269  -3.37249  -3.37213
 Alpha  occ. eigenvalues --   -3.37211  -1.24459  -1.03320  -1.01931  -0.66039
 Alpha  occ. eigenvalues --   -0.60573  -0.53142  -0.49693  -0.49273  -0.48519
 Alpha  occ. eigenvalues --   -0.43190  -0.39027
 Alpha virt. eigenvalues --    0.03561   0.04343   0.08238   0.09867   0.10598
 Alpha virt. eigenvalues --    0.11794   0.13635   0.14039   0.16954   0.17915
 Alpha virt. eigenvalues --    0.18474   0.19048   0.20602   0.22211   0.23656

 Mulliken atomic charges:
              1
     1  O   -0.202913
     2  O   -0.267426
     3  H    0.214077
     4  H    0.248034
     5  Kr   0.008229
 Sum of Mulliken atomic charges =   0.00000

 Dipole moment (field-independent basis, Debye):
    X=              0.9317    Y=             -0.3913    Z=              1.3199  Tot=              1.6623
 Quadrupole moment (field-independent basis, Debye-Ang):
   XX=            -30.9181   YY=            -28.0428   ZZ=            -29.4548
   XY=              3.2185   XZ=             -3.5959   YZ=             -1.5286

 SCF Done:  E(RwB97XD) =  -2905.42870095     A.U. after    9 cycles
 SCF Done:  E(RwB97XD) =  -2905.42983380     A.U. after    9 cycles
 SCF Done:  E(RwB97XD) =  -2905.43055580     A.U. after    9 cycles
 SCF Done:  E(RwB97XD) =  -2905.43098338     A.U. after    9 cycles
 SCF Done:  E(RwB97XD) =  -2905.43121796     A.U. after    9 cycles
 SCF Done:  E(RwB97XD) =  -2905.43131804     A.U. after    9 cycles
 SCF Done:  E(RwB97XD) =  -2905.43134087     A.U. after    9 cycles
 SCF Done:  E(RwB97XD) =  -2905.43130961     A.U. after    9 cycles
 SCF Done:  E(RwB97XD) =  -2905.43124580     A.U. after    9 cycles
 SCF Done:  E(RwB97XD) =  -2905.43108036     A.U. after    8 cycles
 SCF Done:  E(RwB97XD) =  -2905.43099235     A.U. after    8 cycles
 SCF Done:  E(RwB97XD) =  -2905.43090349     A.U. after    8 cycles
 SCF Done:  E(RwB97XD) =  -2905.43082234     A.U. after    8 cycles
 SCF Done:  E(RwB97XD) =  -2905.43074546     A.U. after    8 cycles
 SCF Done:  E(RwB97XD) =  -2905.43067330     A.U. after    8 cycles
 SCF Done:  E(RwB97XD) =  -2905.43060830     A.U. after    8 cycles
 SCF Done:  E(RwB97XD) =  -2905.43055076     A.U. after    8 cycles
 SCF Done:  E(RwB97XD) =  -2905.43049782     A.U. after    8 cycles

                         Standard orientation:
 ---------------------------------------------------------------------
 Center     Atomic      Atomic             Coordinates (Angstroms)
 Number     Number       Type             X           Y           Z
 ---------------------------------------------------------------------
      1          8           0       -3.345053   -0.702336   -0.105259
      2          8           0       -3.337899    0.743003    0.010688
      3          1           0       -3.813958   -1.060833    0.659439
      4          1           0       -2.417764    1.035288    0.043520
      5         36           0        1.658204   -0.008328    0.001489
 ---------------------------------------------------------------------

 SCF Done:  E(RwB97XD) =  -2905.43045112     A.U. after    7 cycles
 Normal termination of Gaussian 09 at Thu Apr 16 12:44:32 2020.
