 Gaussian 09, Revision C.01,
 Gaussian 09:  EM64L-G09RevC.01 23-Sep-2011

 ----------------------------------------------------------------------
 #p wb97xd/aug-cc-PVTz iop(3/107=0250000000) iop(3/108=0250000000) int=
 ultrafine Scan
 ----------------------------------------------------------------------

 (Enter /home/matheus/.gaussian/g09/l101.exe)
 ---
 TCC
 ---
 Charge =  0 Multiplicity = 1

 SCF Done:  E(RwB97XD) =  -2905.42740226     A.U. after   12 cycles

 The electronic state is 1-A.
 Alpha  occ. eigenvalues -- -513.09564 -67.36391 -60.91271 -60.91260 -60.91251
 Alpha  occ. eigenvalues --  -19.34098 -19.33732  -9.81721  -7.51055  -7.51016
 Alpha  occ. eigenvalues --   -7.50988  -3.37737  -3.37729  -3.37708  -3.37677
 Alpha  occ. eigenvalues --   -3.37674  -1.24614  -1.03339  -1.02376  -0.67169
 Alpha  occ. eigenvalues --   -0.59066  -0.53826  -0.50101  -0.49750  -0.48874
 Alpha  occ. eigenvalues --   -0.41458  -0.41010
 Alpha virt. eigenvalues --    0.03450   0.04360   0.08340   0.09617   0.10357
 Alpha virt. eigenvalues --    0.11852   0.13296   0.14091   0.17256   0.17960
 Alpha virt. eigenvalues --    0.18193   0.19041   0.20353   0.22279   0.23221

 Mulliken atomic charges:
              1
     1  O   -0.218459
     2  O   -0.261598
     3  H    0.225487
     4  H    0.245398
     5  Kr   0.009173
 Sum of Mulliken atomic charges =   0.00000

 Dipole moment (field-independent basis, Debye):
    X=             -1.7451    Y=             -0.3970    Z=              1.4746  Tot=              2.3189
 Quadrupole moment (field-independent basis, Debye-Ang):
   XX=            -34.6694   YY=            -27.8788   ZZ=            -29.0023
   XY=             -2.2760   XZ=              3.2149   YZ=             -1.8333

 SCF Done:  E(RwB97XD) =  -2905.42921987     A.U. after    9 cycles
 SCF Done:  E(RwB97XD) =  -2905.43040513     A.U. after    9 cycles
 SCF Done:  E(RwB97XD) =  -2905.43116090     A.U. after    9 cycles
 SCF Done:  E(RwB97XD) =  -2905.43160488     A.U. after    9 cycles
 SCF Done:  E(RwB97XD) =  -2905.43184524     A.U. after    9 cycles
 SCF Done:  E(RwB97XD) =  -2905.43194643     A.U. after    9 cycles
 SCF Done:  E(RwB97XD) =  -2905.43196473     A.U. after    9 cycles
 SCF Done:  E(RwB97XD) =  -2905.43192536     A.U. after    9 cycles
 SCF Done:  E(RwB97XD) =  -2905.43185365     A.U. after    8 cycles
 SCF Done:  E(RwB97XD) =  -2905.43167168     A.U. after    8 cycles
 SCF Done:  E(RwB97XD) =  -2905.43157604     A.U. after    8 cycles
 SCF Done:  E(RwB97XD) =  -2905.43148090     A.U. after    8 cycles
 SCF Done:  E(RwB97XD) =  -2905.43139340     A.U. after    8 cycles
 SCF Done:  E(RwB97XD) =  -2905.43131193     A.U. after    8 cycles
 SCF Done:  E(RwB97XD) =  -2905.43123490     A.U. after    8 cycles
 SCF Done:  E(RwB97XD) =  -2905.43116578     A.U. after    7 cycles
 SCF Done:  E(RwB97XD) =  -2905.43110474     A.U. after    7 cycles
 SCF Done:  E(RwB97XD) =  -2905.43104862     A.U. after    7 cycles

                         Standard orientation:
 ---------------------------------------------------------------------
 Center     Atomic      Atomic             Coordinates (Angstroms)
 Number     Number       Type             X           Y           Z
 ---------------------------------------------------------------------
      1          8           0        3.352389   -0.705668   -0.119404
      2          8           0        3.347542    0.737825    0.017723
      3          1           0        3.363018   -1.089687    0.766921
      4          1           0        2.427879    1.031028    0.055250
      5         36           0       -1.649732   -0.005516   -0.000242
 ---------------------------------------------------------------------

 SCF Done:  E(RwB97XD) =  -2905.43099924     A.U. after    7 cycles
 Normal termination of Gaussian 09 at Thu Apr 16 10:15:56 2020.
