 Gaussian 09, Revision C.01,
 Gaussian 09:  EM64L-G09RevC.01 23-Sep-2011

 ----------------------------------------------------------------------
 #p wb97xd/aug-cc-PVTz iop(3/107=0250000000) iop(3/108=0250000000) int=
 ultrafine Scan
 ----------------------------------------------------------------------

 (Enter /home/matheus/.gaussian/g09/l101.exe)
 ---
 TCC
 ---
 Charge =  0 Multiplicity = 1

 SCF Done:  E(RwB97XD) =  -2905.41991754     A.U. after   12 cycles

 The electronic state is 1-A.
 Alpha  occ. eigenvalues -- -513.11587 -67.38402 -60.93281 -60.93274 -60.93265
 Alpha  occ. eigenvalues --  -19.33703 -19.33553  -9.83724  -7.53049  -7.53026
 Alpha  occ. eigenvalues --   -7.52995  -3.39734  -3.39732  -3.39706  -3.39688
 Alpha  occ. eigenvalues --   -3.39684  -1.24600  -1.04568  -1.02873  -0.69027
 Alpha  occ. eigenvalues --   -0.54988  -0.54147  -0.52146  -0.51458  -0.50456
 Alpha  occ. eigenvalues --   -0.46783  -0.37224
 Alpha virt. eigenvalues --    0.03503   0.04472   0.08648   0.09226   0.09839
 Alpha virt. eigenvalues --    0.11909   0.12644   0.15429   0.17074   0.17766
 Alpha virt. eigenvalues --    0.18301   0.19215   0.20205   0.21653   0.23002

 Mulliken atomic charges:
              1
     1  O   -0.222099
     2  O   -0.245235
     3  H    0.219090
     4  H    0.235394
     5  Kr   0.012850
 Sum of Mulliken atomic charges =   0.00000

 Dipole moment (field-independent basis, Debye):
    X=             -3.3886    Y=             -0.0957    Z=              0.6565  Tot=              3.4529
 Quadrupole moment (field-independent basis, Debye-Ang):
   XX=            -38.3916   YY=            -28.0778   ZZ=            -30.1491
   XY=             -0.3017   XZ=              0.7958   YZ=             -0.8772

 SCF Done:  E(RwB97XD) =  -2905.42228986     A.U. after   10 cycles
 SCF Done:  E(RwB97XD) =  -2905.42385682     A.U. after    9 cycles
 SCF Done:  E(RwB97XD) =  -2905.42486888     A.U. after    9 cycles
 SCF Done:  E(RwB97XD) =  -2905.42548977     A.U. after    9 cycles
 SCF Done:  E(RwB97XD) =  -2905.42584079     A.U. after    9 cycles
 SCF Done:  E(RwB97XD) =  -2905.42600424     A.U. after    8 cycles
 SCF Done:  E(RwB97XD) =  -2905.42604538     A.U. after    8 cycles
 SCF Done:  E(RwB97XD) =  -2905.42600771     A.U. after    8 cycles
 SCF Done:  E(RwB97XD) =  -2905.42592081     A.U. after    8 cycles
 SCF Done:  E(RwB97XD) =  -2905.42567783     A.U. after    8 cycles
 SCF Done:  E(RwB97XD) =  -2905.42554925     A.U. after    8 cycles
 SCF Done:  E(RwB97XD) =  -2905.42542133     A.U. after    8 cycles
 SCF Done:  E(RwB97XD) =  -2905.42530394     A.U. after    8 cycles
 SCF Done:  E(RwB97XD) =  -2905.42519435     A.U. after    8 cycles
 SCF Done:  E(RwB97XD) =  -2905.42509295     A.U. after    8 cycles
 SCF Done:  E(RwB97XD) =  -2905.42500142     A.U. after    8 cycles
 SCF Done:  E(RwB97XD) =  -2905.42492044     A.U. after    8 cycles
 SCF Done:  E(RwB97XD) =  -2905.42484723     A.U. after    7 cycles

                         Standard orientation:
 ---------------------------------------------------------------------
 Center     Atomic      Atomic             Coordinates (Angstroms)
 Number     Number       Type             X           Y           Z
 ---------------------------------------------------------------------
      1          8           0        3.365349   -0.721703   -0.055068
      2          8           0        3.364686    0.726799    0.010824
      3          1           0        2.571729   -1.041290    0.393470
      4          1           0        2.445837    1.024411    0.028109
      5         36           0       -1.634940   -0.000663   -0.001879
 ---------------------------------------------------------------------

 SCF Done:  E(RwB97XD) =  -2905.42478220     A.U. after    7 cycles
 Normal termination of Gaussian 09 at Thu Apr 16 09:27:31 2020.
