 Gaussian 09, Revision C.01,
 Gaussian 09:  EM64L-G09RevC.01 23-Sep-2011

 ----------------------------------------------------------------------
 #p wb97xd/aug-cc-PVTz iop(3/107=0250000000) iop(3/108=0250000000) int=
 ultrafine Scan
 ----------------------------------------------------------------------

 (Enter /home/matheus/.gaussian/g09/l101.exe)
 ---
 TCC
 ---
 Charge =  0 Multiplicity = 1

 SCF Done:  E(RwB97XD) =  -2905.42741349     A.U. after   12 cycles

 The electronic state is 1-A.
 Alpha  occ. eigenvalues -- -513.09215 -67.36042 -60.90923 -60.90910 -60.90901
 Alpha  occ. eigenvalues --  -19.34023 -19.33646  -9.81371  -7.50707  -7.50664
 Alpha  occ. eigenvalues --   -7.50638  -3.37388  -3.37380  -3.37360  -3.37325
 Alpha  occ. eigenvalues --   -3.37322  -1.24515  -1.03328  -1.02042  -0.66402
 Alpha  occ. eigenvalues --   -0.60142  -0.53394  -0.49780  -0.49394  -0.48595
 Alpha  occ. eigenvalues --   -0.42487  -0.39778
 Alpha virt. eigenvalues --    0.03521   0.04348   0.08270   0.09789   0.10521
 Alpha virt. eigenvalues --    0.11828   0.13582   0.13970   0.17054   0.17943
 Alpha virt. eigenvalues --    0.18392   0.19012   0.20509   0.22169   0.23493

 Mulliken atomic charges:
              1
     1  O   -0.208297
     2  O   -0.265824
     3  H    0.217528
     4  H    0.247606
     5  Kr   0.008988
 Sum of Mulliken atomic charges =   0.00000

 Dipole moment (field-independent basis, Debye):
    X=              1.1824    Y=             -0.4051    Z=              1.4184  Tot=              1.8905
 Quadrupole moment (field-independent basis, Debye-Ang):
   XX=            -32.2240   YY=            -27.9707   ZZ=            -29.2262
   XY=              2.9489   XZ=             -3.6243   YZ=             -1.6858

 SCF Done:  E(RwB97XD) =  -2905.42917244     A.U. after    9 cycles
 SCF Done:  E(RwB97XD) =  -2905.43031875     A.U. after    9 cycles
 SCF Done:  E(RwB97XD) =  -2905.43104947     A.U. after    9 cycles
 SCF Done:  E(RwB97XD) =  -2905.43147983     A.U. after    9 cycles
 SCF Done:  E(RwB97XD) =  -2905.43171502     A.U. after    9 cycles
 SCF Done:  E(RwB97XD) =  -2905.43181474     A.U. after    9 cycles
 SCF Done:  E(RwB97XD) =  -2905.43183566     A.U. after    9 cycles
 SCF Done:  E(RwB97XD) =  -2905.43180149     A.U. after    9 cycles
 SCF Done:  E(RwB97XD) =  -2905.43173533     A.U. after    9 cycles
 SCF Done:  E(RwB97XD) =  -2905.43156480     A.U. after    8 cycles
 SCF Done:  E(RwB97XD) =  -2905.43147462     A.U. after    8 cycles
 SCF Done:  E(RwB97XD) =  -2905.43138402     A.U. after    8 cycles
 SCF Done:  E(RwB97XD) =  -2905.43130096     A.U. after    8 cycles
 SCF Done:  E(RwB97XD) =  -2905.43122280     A.U. after    8 cycles
 SCF Done:  E(RwB97XD) =  -2905.43114930     A.U. after    8 cycles
 SCF Done:  E(RwB97XD) =  -2905.43108306     A.U. after    8 cycles
 SCF Done:  E(RwB97XD) =  -2905.43102455     A.U. after    7 cycles
 SCF Done:  E(RwB97XD) =  -2905.43097066     A.U. after    7 cycles

                         Standard orientation:
 ---------------------------------------------------------------------
 Center     Atomic      Atomic             Coordinates (Angstroms)
 Number     Number       Type             X           Y           Z
 ---------------------------------------------------------------------
      1          8           0       -3.347351   -0.702876   -0.113803
      2          8           0       -3.340916    0.741517    0.013421
      3          1           0       -3.672093   -1.074253    0.716726
      4          1           0       -2.420932    1.033951    0.049025
      5         36           0        1.655532   -0.007467    0.001036
 ---------------------------------------------------------------------

 SCF Done:  E(RwB97XD) =  -2905.43092325     A.U. after    7 cycles
 Normal termination of Gaussian 09 at Thu Apr 16 12:54:27 2020.
