 Gaussian 09, Revision C.01,
 Gaussian 09:  EM64L-G09RevC.01 23-Sep-2011

 ----------------------------------------------------------------------
 #p wb97xd/aug-cc-PVTz iop(3/107=0250000000) iop(3/108=0250000000) int=
 ultrafine Scan
 ----------------------------------------------------------------------

 (Enter /home/matheus/.gaussian/g09/l101.exe)
 ---
 TCC
 ---
 Charge =  0 Multiplicity = 1

 SCF Done:  E(RwB97XD) =  -2905.42758091     A.U. after   12 cycles

 The electronic state is 1-A.
 Alpha  occ. eigenvalues -- -513.09366 -67.36194 -60.91074 -60.91062 -60.91053
 Alpha  occ. eigenvalues --  -19.34069 -19.33697  -9.81523  -7.50858  -7.50817
 Alpha  occ. eigenvalues --   -7.50790  -3.37540  -3.37532  -3.37511  -3.37478
 Alpha  occ. eigenvalues --   -3.37475  -1.24567  -1.03334  -1.02190  -0.66782
 Alpha  occ. eigenvalues --   -0.59639  -0.53622  -0.49915  -0.49552  -0.48713
 Alpha  occ. eigenvalues --   -0.41754  -0.40593
 Alpha virt. eigenvalues --    0.03482   0.04354   0.08304   0.09705   0.10439
 Alpha virt. eigenvalues --    0.11848   0.13454   0.14005   0.17162   0.17958
 Alpha virt. eigenvalues --    0.18296   0.19014   0.20422   0.22210   0.23325

 Mulliken atomic charges:
              1
     1  O   -0.213971
     2  O   -0.263875
     3  H    0.221858
     4  H    0.246767
     5  Kr   0.009220
 Sum of Mulliken atomic charges =   0.00000

 Dipole moment (field-independent basis, Debye):
    X=              1.4559    Y=             -0.4079    Z=              1.4703  Tot=              2.1090
 Quadrupole moment (field-independent basis, Debye-Ang):
   XX=            -33.4941   YY=            -27.9138   ZZ=            -29.0693
   XY=              2.6315   XZ=             -3.4875   YZ=             -1.7900

 SCF Done:  E(RwB97XD) =  -2905.42936488     A.U. after    9 cycles
 SCF Done:  E(RwB97XD) =  -2905.43052780     A.U. after    9 cycles
 SCF Done:  E(RwB97XD) =  -2905.43126930     A.U. after    9 cycles
 SCF Done:  E(RwB97XD) =  -2905.43170492     A.U. after    9 cycles
 SCF Done:  E(RwB97XD) =  -2905.43194185     A.U. after    9 cycles
 SCF Done:  E(RwB97XD) =  -2905.43204197     A.U. after    9 cycles
 SCF Done:  E(RwB97XD) =  -2905.43206146     A.U. after    9 cycles
 SCF Done:  E(RwB97XD) =  -2905.43202465     A.U. after    9 cycles
 SCF Done:  E(RwB97XD) =  -2905.43195586     A.U. after    8 cycles
 SCF Done:  E(RwB97XD) =  -2905.43178004     A.U. after    8 cycles
 SCF Done:  E(RwB97XD) =  -2905.43168740     A.U. after    8 cycles
 SCF Done:  E(RwB97XD) =  -2905.43159476     A.U. after    8 cycles
 SCF Done:  E(RwB97XD) =  -2905.43150963     A.U. after    8 cycles
 SCF Done:  E(RwB97XD) =  -2905.43143007     A.U. after    7 cycles
 SCF Done:  E(RwB97XD) =  -2905.43135496     A.U. after    8 cycles
 SCF Done:  E(RwB97XD) =  -2905.43128735     A.U. after    8 cycles
 SCF Done:  E(RwB97XD) =  -2905.43122766     A.U. after    7 cycles
 SCF Done:  E(RwB97XD) =  -2905.43117275     A.U. after    7 cycles

                         Standard orientation:
 ---------------------------------------------------------------------
 Center     Atomic      Atomic             Coordinates (Angstroms)
 Number     Number       Type             X           Y           Z
 ---------------------------------------------------------------------
      1          8           0       -3.349822   -0.703971   -0.118573
      2          8           0       -3.344163    0.739772    0.015865
      3          1           0       -3.520251   -1.084259    0.752914
      4          1           0       -2.424338    1.032507    0.053058
      5         36           0        1.652680   -0.006518    0.000436
 ---------------------------------------------------------------------

 SCF Done:  E(RwB97XD) =  -2905.43112451     A.U. after    7 cycles
 Normal termination of Gaussian 09 at Thu Apr 16 13:02:51 2020.
