 Gaussian 09, Revision C.01,
 Gaussian 09:  EM64L-G09RevC.01 23-Sep-2011

 ----------------------------------------------------------------------
 #p wb97xd/aug-cc-PVTz iop(3/107=0250000000) iop(3/108=0250000000) int=
 ultrafine Scan
 ----------------------------------------------------------------------

 (Enter /home/matheus/.gaussian/g09/l101.exe)
 ---
 TCC
 ---
 Charge =  0 Multiplicity = 1

 SCF Done:  E(RwB97XD) =  -2905.42463429     A.U. after   12 cycles

 The electronic state is 1-A.
 Alpha  occ. eigenvalues -- -513.10445 -67.37269 -60.92148 -60.92138 -60.92130
 Alpha  occ. eigenvalues --  -19.34041 -19.33721  -9.82596  -7.51924  -7.51893
 Alpha  occ. eigenvalues --   -7.51865  -3.38608  -3.38603  -3.38580  -3.38556
 Alpha  occ. eigenvalues --   -3.38552  -1.24690  -1.03543  -1.02964  -0.68260
 Alpha  occ. eigenvalues --   -0.56958  -0.54285  -0.50984  -0.50578  -0.49596
 Alpha  occ. eigenvalues --   -0.44191  -0.38887
 Alpha virt. eigenvalues --    0.03423   0.04395   0.08473   0.09352   0.10112
 Alpha virt. eigenvalues --    0.11836   0.12855   0.14481   0.17322   0.17735
 Alpha virt. eigenvalues --    0.18128   0.19169   0.20255   0.22173   0.23287

 Mulliken atomic charges:
              1
     1  O   -0.219788
     2  O   -0.254892
     3  H    0.223451
     4  H    0.241095
     5  Kr   0.010134
 Sum of Mulliken atomic charges =   0.00000

 Dipole moment (field-independent basis, Debye):
    X=              2.6320    Y=             -0.2795    Z=              1.2153  Tot=              2.9125
 Quadrupole moment (field-independent basis, Debye-Ang):
   XX=            -37.2591   YY=            -27.9213   ZZ=            -29.3611
   XY=              1.1487   XZ=             -1.9666   YZ=             -1.5779

 SCF Done:  E(RwB97XD) =  -2905.42663640     A.U. after    9 cycles
 SCF Done:  E(RwB97XD) =  -2905.42795841     A.U. after    9 cycles
 SCF Done:  E(RwB97XD) =  -2905.42880721     A.U. after    8 cycles
 SCF Done:  E(RwB97XD) =  -2905.42931118     A.U. after    8 cycles
 SCF Done:  E(RwB97XD) =  -2905.42959009     A.U. after    8 cycles
 SCF Done:  E(RwB97XD) =  -2905.42971024     A.U. after    8 cycles
 SCF Done:  E(RwB97XD) =  -2905.42972832     A.U. after    8 cycles
 SCF Done:  E(RwB97XD) =  -2905.42968564     A.U. after    8 cycles
 SCF Done:  E(RwB97XD) =  -2905.42960275     A.U. after    8 cycles
 SCF Done:  E(RwB97XD) =  -2905.42939205     A.U. after    8 cycles
 SCF Done:  E(RwB97XD) =  -2905.42928204     A.U. after    8 cycles
 SCF Done:  E(RwB97XD) =  -2905.42917400     A.U. after    8 cycles
 SCF Done:  E(RwB97XD) =  -2905.42907415     A.U. after    8 cycles
 SCF Done:  E(RwB97XD) =  -2905.42898216     A.U. after    8 cycles
 SCF Done:  E(RwB97XD) =  -2905.42889585     A.U. after    8 cycles
 SCF Done:  E(RwB97XD) =  -2905.42881867     A.U. after    8 cycles
 SCF Done:  E(RwB97XD) =  -2905.42875046     A.U. after    8 cycles
 SCF Done:  E(RwB97XD) =  -2905.42868849     A.U. after    7 cycles

                         Standard orientation:
 ---------------------------------------------------------------------
 Center     Atomic      Atomic             Coordinates (Angstroms)
 Number     Number       Type             X           Y           Z
 ---------------------------------------------------------------------
      1          8           0       -3.359854   -0.713590   -0.099525
      2          8           0       -3.357398    0.731636    0.018009
      3          1           0       -2.907321   -1.076669    0.672837
      4          1           0       -2.438202    1.027023    0.049337
      5         36           0        1.641210   -0.002631   -0.001946
 ---------------------------------------------------------------------

 SCF Done:  E(RwB97XD) =  -2905.42863368     A.U. after    7 cycles
 Normal termination of Gaussian 09 at Thu Apr 16 13:36:04 2020.
