 Gaussian 09, Revision C.01,
 Gaussian 09:  EM64L-G09RevC.01 23-Sep-2011

 ----------------------------------------------------------------------
 #p wb97xd/aug-cc-PVTz iop(3/107=0250000000) iop(3/108=0250000000) int=
 ultrafine Scan
 ----------------------------------------------------------------------

 (Enter /home/matheus/.gaussian/g09/l101.exe)
 ---
 TCC
 ---
 Charge =  0 Multiplicity = 1

 SCF Done:  E(RwB97XD) =  -2905.42424394     A.U. after   12 cycles

 The electronic state is 1-A.
 Alpha  occ. eigenvalues -- -513.08942 -67.35768 -60.90649 -60.90635 -60.90628
 Alpha  occ. eigenvalues --  -19.33719 -19.33312  -9.81095  -7.50433  -7.50385
 Alpha  occ. eigenvalues --   -7.50364  -3.37113  -3.37103  -3.37087  -3.37048
 Alpha  occ. eigenvalues --   -3.37046  -1.24270  -1.03278  -1.01754  -0.64985
 Alpha  occ. eigenvalues --   -0.61603  -0.52079  -0.49729  -0.49030  -0.48543
 Alpha  occ. eigenvalues --   -0.45254  -0.36972
 Alpha virt. eigenvalues --    0.03667   0.04340   0.08136   0.10109   0.10789
 Alpha virt. eigenvalues --    0.11690   0.13601   0.14450   0.16998   0.17589
 Alpha virt. eigenvalues --    0.18659   0.19443   0.20741   0.23187   0.23518

 Mulliken atomic charges:
              1
     1  O   -0.185561
     2  O   -0.274995
     3  H    0.201985
     4  H    0.250331
     5  Kr   0.008240
 Sum of Mulliken atomic charges =   0.00000

 Dipole moment (field-independent basis, Debye):
    X=              0.2639    Y=             -0.3015    Z=              0.5346  Tot=              0.6681
 Quadrupole moment (field-independent basis, Debye-Ang):
   XX=            -26.7209   YY=            -28.3194   ZZ=            -30.5025
   XY=              3.8076   XZ=             -1.6992   YZ=             -0.5668

 SCF Done:  E(RwB97XD) =  -2905.42592789     A.U. after    9 cycles
 SCF Done:  E(RwB97XD) =  -2905.42702548     A.U. after    9 cycles
 SCF Done:  E(RwB97XD) =  -2905.42772945     A.U. after    9 cycles
 SCF Done:  E(RwB97XD) =  -2905.42815283     A.U. after    9 cycles
 SCF Done:  E(RwB97XD) =  -2905.42839210     A.U. after    9 cycles
 SCF Done:  E(RwB97XD) =  -2905.42849700     A.U. after    9 cycles
 SCF Done:  E(RwB97XD) =  -2905.42852664     A.U. after    9 cycles
 SCF Done:  E(RwB97XD) =  -2905.42850760     A.U. after    8 cycles
 SCF Done:  E(RwB97XD) =  -2905.42845291     A.U. after    8 cycles
 SCF Done:  E(RwB97XD) =  -2905.42830359     A.U. after    8 cycles
 SCF Done:  E(RwB97XD) =  -2905.42822183     A.U. after    8 cycles
 SCF Done:  E(RwB97XD) =  -2905.42813875     A.U. after    8 cycles
 SCF Done:  E(RwB97XD) =  -2905.42806152     A.U. after    8 cycles
 SCF Done:  E(RwB97XD) =  -2905.42798850     A.U. after    8 cycles
 SCF Done:  E(RwB97XD) =  -2905.42791903     A.U. after    8 cycles
 SCF Done:  E(RwB97XD) =  -2905.42785707     A.U. after    8 cycles
 SCF Done:  E(RwB97XD) =  -2905.42780204     A.U. after    8 cycles
 SCF Done:  E(RwB97XD) =  -2905.42775134     A.U. after    8 cycles

                         Standard orientation:
 ---------------------------------------------------------------------
 Center     Atomic      Atomic             Coordinates (Angstroms)
 Number     Number       Type             X           Y           Z
 ---------------------------------------------------------------------
      1          8           0       -3.338788   -0.703117   -0.041633
      2          8           0       -3.329684    0.746197    0.002021
      3          1           0       -4.205330   -1.005406    0.259834
      4          1           0       -2.409117    1.038679    0.014862
      5         36           0        1.665617   -0.010497    0.001172
 ---------------------------------------------------------------------

 SCF Done:  E(RwB97XD) =  -2905.42770635     A.U. after    7 cycles
 Normal termination of Gaussian 09 at Thu Apr 16 12:02:04 2020.
