 Gaussian 09, Revision C.01,
 Gaussian 09:  EM64L-G09RevC.01 23-Sep-2011

 ----------------------------------------------------------------------
 #p wb97xd/aug-cc-PVTz iop(3/107=0250000000) iop(3/108=0250000000) int=
 ultrafine Scan
 ----------------------------------------------------------------------

 (Enter /home/matheus/.gaussian/g09/l101.exe)
 ---
 TCC
 ---
 Charge =  0 Multiplicity = 1

 SCF Done:  E(RwB97XD) =  -2905.42590497     A.U. after   12 cycles

 The electronic state is 1-A.
 Alpha  occ. eigenvalues -- -513.10106 -67.36931 -60.91811 -60.91800 -60.91792
 Alpha  occ. eigenvalues --  -19.34087 -19.33744  -9.82259  -7.51590  -7.51556
 Alpha  occ. eigenvalues --   -7.51528  -3.38273  -3.38267  -3.38245  -3.38218
 Alpha  occ. eigenvalues --   -3.38215  -1.24679  -1.03394  -1.02816  -0.67919
 Alpha  occ. eigenvalues --   -0.57718  -0.54158  -0.50638  -0.50268  -0.49321
 Alpha  occ. eigenvalues --   -0.43272  -0.39561
 Alpha virt. eigenvalues --    0.03417   0.04379   0.08423   0.09436   0.10193
 Alpha virt. eigenvalues --    0.11838   0.12986   0.14324   0.17341   0.17828
 Alpha virt. eigenvalues --    0.18109   0.19127   0.20274   0.22268   0.23251

 Mulliken atomic charges:
              1
     1  O   -0.220889
     2  O   -0.257087
     3  H    0.226198
     4  H    0.242271
     5  Kr   0.009506
 Sum of Mulliken atomic charges =   0.00000

 Dipole moment (field-independent basis, Debye):
    X=              2.3409    Y=             -0.3313    Z=              1.3439  Tot=              2.7195
 Quadrupole moment (field-independent basis, Debye-Ang):
   XX=            -36.5711   YY=            -27.8851   ZZ=            -29.1578
   XY=              1.5152   XZ=             -2.4143   YZ=             -1.7247

 SCF Done:  E(RwB97XD) =  -2905.42782763     A.U. after    9 cycles
 SCF Done:  E(RwB97XD) =  -2905.42909209     A.U. after    9 cycles
 SCF Done:  E(RwB97XD) =  -2905.42990029     A.U. after    8 cycles
 SCF Done:  E(RwB97XD) =  -2905.43037552     A.U. after    8 cycles
 SCF Done:  E(RwB97XD) =  -2905.43063670     A.U. after    8 cycles
 SCF Done:  E(RwB97XD) =  -2905.43074512     A.U. after    8 cycles
 SCF Done:  E(RwB97XD) =  -2905.43076190     A.U. after    8 cycles
 SCF Done:  E(RwB97XD) =  -2905.43071891     A.U. after    8 cycles
 SCF Done:  E(RwB97XD) =  -2905.43063975     A.U. after    8 cycles
 SCF Done:  E(RwB97XD) =  -2905.43044053     A.U. after    8 cycles
 SCF Done:  E(RwB97XD) =  -2905.43033633     A.U. after    8 cycles
 SCF Done:  E(RwB97XD) =  -2905.43023367     A.U. after    8 cycles
 SCF Done:  E(RwB97XD) =  -2905.43013924     A.U. after    8 cycles
 SCF Done:  E(RwB97XD) =  -2905.43005164     A.U. after    8 cycles
 SCF Done:  E(RwB97XD) =  -2905.42996921     A.U. after    8 cycles
 SCF Done:  E(RwB97XD) =  -2905.42989544     A.U. after    8 cycles
 SCF Done:  E(RwB97XD) =  -2905.42983026     A.U. after    7 cycles
 SCF Done:  E(RwB97XD) =  -2905.42977074     A.U. after    7 cycles

                         Standard orientation:
 ---------------------------------------------------------------------
 Center     Atomic      Atomic             Coordinates (Angstroms)
 Number     Number       Type             X           Y           Z
 ---------------------------------------------------------------------
      1          8           0       -3.357487   -0.710635   -0.109567
      2          8           0       -3.354268    0.733662    0.018863
      3          1           0       -3.051713   -1.085363    0.726637
      4          1           0       -2.434924    1.028235    0.053358
      5         36           0        1.643908   -0.003530   -0.001510
 ---------------------------------------------------------------------

 SCF Done:  E(RwB97XD) =  -2905.42971830     A.U. after    7 cycles
 Normal termination of Gaussian 09 at Thu Apr 16 13:28:05 2020.
