 Gaussian 09, Revision C.01,
 Gaussian 09:  EM64L-G09RevC.01 23-Sep-2011

 ----------------------------------------------------------------------
 #p wb97xd/aug-cc-PVTz iop(3/107=0250000000) iop(3/108=0250000000) int=
 ultrafine Scan
 ----------------------------------------------------------------------

 (Enter /home/matheus/.gaussian/g09/l101.exe)
 ---
 TCC
 ---
 Charge =  0 Multiplicity = 1

 SCF Done:  E(RwB97XD) =  -2905.42150123     A.U. after   12 cycles

 The electronic state is 1-A.
 Alpha  occ. eigenvalues -- -513.11211 -67.38029 -60.92908 -60.92901 -60.92891
 Alpha  occ. eigenvalues --  -19.33842 -19.33620  -9.83353  -7.52678  -7.52654
 Alpha  occ. eigenvalues --   -7.52623  -3.39363  -3.39360  -3.39335  -3.39316
 Alpha  occ. eigenvalues --   -3.39312  -1.24649  -1.04196  -1.02947  -0.68823
 Alpha  occ. eigenvalues --   -0.55425  -0.54392  -0.51772  -0.51219  -0.50186
 Alpha  occ. eigenvalues --   -0.45963  -0.37702
 Alpha virt. eigenvalues --    0.03472   0.04444   0.08592   0.09236   0.09940
 Alpha virt. eigenvalues --    0.11875   0.12683   0.14999   0.17184   0.17705
 Alpha virt. eigenvalues --    0.18204   0.19216   0.20220   0.21859   0.23173

 Mulliken atomic charges:
              1
     1  O   -0.219309
     2  O   -0.249071
     3  H    0.218571
     4  H    0.238013
     5  Kr   0.011797
 Sum of Mulliken atomic charges =   0.00000

 Dipole moment (field-independent basis, Debye):
    X=              3.1654    Y=             -0.1559    Z=              0.8632  Tot=              3.2846
 Quadrupole moment (field-independent basis, Debye-Ang):
   XX=            -38.1449   YY=            -28.0257   ZZ=            -29.8911
   XY=              0.5304   XZ=             -1.1402   YZ=             -1.1428

 SCF Done:  E(RwB97XD) =  -2905.42372518     A.U. after    9 cycles
 SCF Done:  E(RwB97XD) =  -2905.42519924     A.U. after    9 cycles
 SCF Done:  E(RwB97XD) =  -2905.42615179     A.U. after    9 cycles
 SCF Done:  E(RwB97XD) =  -2905.42673066     A.U. after    8 cycles
 SCF Done:  E(RwB97XD) =  -2905.42705741     A.U. after    9 cycles
 SCF Done:  E(RwB97XD) =  -2905.42720767     A.U. after    8 cycles
 SCF Done:  E(RwB97XD) =  -2905.42724060     A.U. after    8 cycles
 SCF Done:  E(RwB97XD) =  -2905.42720271     A.U. after    8 cycles
 SCF Done:  E(RwB97XD) =  -2905.42711467     A.U. after    8 cycles
 SCF Done:  E(RwB97XD) =  -2905.42688180     A.U. after    8 cycles
 SCF Done:  E(RwB97XD) =  -2905.42675905     A.U. after    8 cycles
 SCF Done:  E(RwB97XD) =  -2905.42663718     A.U. after    8 cycles
 SCF Done:  E(RwB97XD) =  -2905.42652558     A.U. after    8 cycles
 SCF Done:  E(RwB97XD) =  -2905.42642233     A.U. after    8 cycles
 SCF Done:  E(RwB97XD) =  -2905.42632542     A.U. after    8 cycles
 SCF Done:  E(RwB97XD) =  -2905.42623913     A.U. after    8 cycles
 SCF Done:  E(RwB97XD) =  -2905.42616293     A.U. after    8 cycles
 SCF Done:  E(RwB97XD) =  -2905.42609360     A.U. after    8 cycles

                         Standard orientation:
 ---------------------------------------------------------------------
 Center     Atomic      Atomic             Coordinates (Angstroms)
 Number     Number       Type             X           Y           Z
 ---------------------------------------------------------------------
      1          8           0       -3.363848   -0.719340   -0.071712
      2          8           0       -3.362692    0.728134    0.013834
      3          1           0       -2.663514   -1.052953    0.503953
      4          1           0       -2.443747    1.025099    0.036368
      5         36           0        1.636655   -0.001181   -0.002147
 ---------------------------------------------------------------------

 SCF Done:  E(RwB97XD) =  -2905.42603203     A.U. after    7 cycles
 Normal termination of Gaussian 09 at Thu Apr 16 13:52:27 2020.
