 Gaussian 09, Revision C.01,
 Gaussian 09:  EM64L-G09RevC.01 23-Sep-2011

 ----------------------------------------------------------------------
 #p wb97xd/aug-cc-PVTz iop(3/107=0250000000) iop(3/108=0250000000) int=
 ultrafine Scan
 ----------------------------------------------------------------------

 (Enter /home/matheus/.gaussian/g09/l101.exe)
 ---
 TCC
 ---
 Charge =  0 Multiplicity = 1

 SCF Done:  E(RwB97XD) =  -2905.41856729     A.U. after   12 cycles

 The electronic state is 1-A.
 Alpha  occ. eigenvalues -- -513.11905 -67.38719 -60.93597 -60.93591 -60.93582
 Alpha  occ. eigenvalues --  -19.33565 -19.33488  -9.84040  -7.53365  -7.53341
 Alpha  occ. eigenvalues --   -7.53311  -3.40050  -3.40048  -3.40022  -3.40004
 Alpha  occ. eigenvalues --   -3.40000  -1.24546  -1.04893  -1.02794  -0.69175
 Alpha  occ. eigenvalues --   -0.54925  -0.53716  -0.52432  -0.51513  -0.50676
 Alpha  occ. eigenvalues --   -0.47524  -0.36852
 Alpha virt. eigenvalues --    0.03527   0.04494   0.08687   0.09263   0.09725
 Alpha virt. eigenvalues --    0.11935   0.12625   0.15976   0.16976   0.17790
 Alpha virt. eigenvalues --    0.18475   0.19201   0.20176   0.21465   0.22772

 Mulliken atomic charges:
              1
     1  O   -0.227379
     2  O   -0.241013
     3  H    0.222502
     4  H    0.232358
     5  Kr   0.013531
 Sum of Mulliken atomic charges =   0.00000

 Dipole moment (field-independent basis, Debye):
    X=             -3.5658    Y=             -0.0454    Z=              0.4403  Tot=              3.5932
 Quadrupole moment (field-independent basis, Debye-Ang):
   XX=            -38.5456   YY=            -28.1203   ZZ=            -30.3582
   XY=             -0.1352   XZ=              0.4993   YZ=             -0.5934

 SCF Done:  E(RwB97XD) =  -2905.42107929     A.U. after   10 cycles
 SCF Done:  E(RwB97XD) =  -2905.42274694     A.U. after    9 cycles
 SCF Done:  E(RwB97XD) =  -2905.42381841     A.U. after    9 cycles
 SCF Done:  E(RwB97XD) =  -2905.42447405     A.U. after    9 cycles
 SCF Done:  E(RwB97XD) =  -2905.42484925     A.U. after    9 cycles
 SCF Done:  E(RwB97XD) =  -2905.42502195     A.U. after    9 cycles
 SCF Done:  E(RwB97XD) =  -2905.42506948     A.U. after    8 cycles
 SCF Done:  E(RwB97XD) =  -2905.42503349     A.U. after    8 cycles
 SCF Done:  E(RwB97XD) =  -2905.42494456     A.U. after    8 cycles
 SCF Done:  E(RwB97XD) =  -2905.42469542     A.U. after    8 cycles
 SCF Done:  E(RwB97XD) =  -2905.42456064     A.U. after    8 cycles
 SCF Done:  E(RwB97XD) =  -2905.42442799     A.U. after    8 cycles
 SCF Done:  E(RwB97XD) =  -2905.42430527     A.U. after    8 cycles
 SCF Done:  E(RwB97XD) =  -2905.42419054     A.U. after    8 cycles
 SCF Done:  E(RwB97XD) =  -2905.42408453     A.U. after    8 cycles
 SCF Done:  E(RwB97XD) =  -2905.42398921     A.U. after    8 cycles
 SCF Done:  E(RwB97XD) =  -2905.42390414     A.U. after    8 cycles
 SCF Done:  E(RwB97XD) =  -2905.42382701     A.U. after    7 cycles

                         Standard orientation:
 ---------------------------------------------------------------------
 Center     Atomic      Atomic             Coordinates (Angstroms)
 Number     Number       Type             X           Y           Z
 ---------------------------------------------------------------------
      1          8           0        3.366455   -0.723500   -0.037290
      2          8           0        3.366156    0.725811    0.007420
      3          1           0        2.504059   -1.031807    0.269915
      4          1           0        2.447377    1.023913    0.019113
      5         36           0       -1.633676   -0.000294   -0.001391
 ---------------------------------------------------------------------

 SCF Done:  E(RwB97XD) =  -2905.42375896     A.U. after    7 cycles
 Normal termination of Gaussian 09 at Thu Apr 16 09:19:06 2020.
