 Gaussian 09, Revision C.01,
 Gaussian 09:  EM64L-G09RevC.01 23-Sep-2011

 ----------------------------------------------------------------------
 #p wb97xd/aug-cc-PVTz iop(3/107=0250000000) iop(3/108=0250000000) int=
 ultrafine Scan
 ----------------------------------------------------------------------

 (Enter /home/matheus/.gaussian/g09/l101.exe)
 ---
 TCC
 ---
 Charge =  0 Multiplicity = 1

 SCF Done:  E(RwB97XD) =  -2905.41764099     A.U. after   12 cycles

 The electronic state is 1-A.
 Alpha  occ. eigenvalues -- -513.12122 -67.38935 -60.93814 -60.93807 -60.93798
 Alpha  occ. eigenvalues --  -19.33461 -19.33440  -9.84255  -7.53581  -7.53556
 Alpha  occ. eigenvalues --   -7.53526  -3.40266  -3.40263  -3.40238  -3.40218
 Alpha  occ. eigenvalues --   -3.40215  -1.24502  -1.05117  -1.02734  -0.69264
 Alpha  occ. eigenvalues --   -0.54951  -0.53497  -0.52591  -0.51315  -0.50843
 Alpha  occ. eigenvalues --   -0.48108  -0.36612
 Alpha virt. eigenvalues --    0.03541   0.04506   0.08705   0.09347   0.09600
 Alpha virt. eigenvalues --    0.11948   0.12615   0.16480   0.17015   0.17693
 Alpha virt. eigenvalues --    0.18666   0.19187   0.20094   0.21386   0.22536

 Mulliken atomic charges:
              1
     1  O   -0.233307
     2  O   -0.237378
     3  H    0.226935
     4  H    0.229863
     5  Kr   0.013887
 Sum of Mulliken atomic charges =   0.00000

 Dipole moment (field-independent basis, Debye):
    X=              3.6814    Y=             -0.0118    Z=              0.2206  Tot=              3.6880
 Quadrupole moment (field-independent basis, Debye-Ang):
   XX=            -38.6289   YY=            -28.1481   ZZ=            -30.4937
   XY=              0.0339   XZ=             -0.2397   YZ=             -0.2991

 SCF Done:  E(RwB97XD) =  -2905.42026580     A.U. after    9 cycles
 SCF Done:  E(RwB97XD) =  -2905.42200438     A.U. after    9 cycles
 SCF Done:  E(RwB97XD) =  -2905.42312604     A.U. after    9 cycles
 SCF Done:  E(RwB97XD) =  -2905.42381077     A.U. after    9 cycles
 SCF Done:  E(RwB97XD) =  -2905.42419934     A.U. after    9 cycles
 SCF Done:  E(RwB97XD) =  -2905.42438060     A.U. after    8 cycles
 SCF Done:  E(RwB97XD) =  -2905.42442968     A.U. after    8 cycles
 SCF Done:  E(RwB97XD) =  -2905.42439589     A.U. after    8 cycles
 SCF Done:  E(RwB97XD) =  -2905.42430477     A.U. after    8 cycles
 SCF Done:  E(RwB97XD) =  -2905.42405061     A.U. after    8 cycles
 SCF Done:  E(RwB97XD) =  -2905.42391359     A.U. after    8 cycles
 SCF Done:  E(RwB97XD) =  -2905.42377519     A.U. after    8 cycles
 SCF Done:  E(RwB97XD) =  -2905.42365016     A.U. after    8 cycles
 SCF Done:  E(RwB97XD) =  -2905.42353190     A.U. after    8 cycles
 SCF Done:  E(RwB97XD) =  -2905.42342210     A.U. after    7 cycles
 SCF Done:  E(RwB97XD) =  -2905.42332402     A.U. after    7 cycles
 SCF Done:  E(RwB97XD) =  -2905.42323661     A.U. after    7 cycles
 SCF Done:  E(RwB97XD) =  -2905.42315695     A.U. after    7 cycles

                         Standard orientation:
 ---------------------------------------------------------------------
 Center     Atomic      Atomic             Coordinates (Angstroms)
 Number     Number       Type             X           Y           Z
 ---------------------------------------------------------------------
      1          8           0       -3.367132   -0.724620   -0.018811
      2          8           0       -3.367057    0.725204    0.003769
      3          1           0       -2.462602   -1.025644    0.137283
      4          1           0       -2.448321    1.023611    0.009663
      5         36           0        1.632901   -0.000073   -0.000739
 ---------------------------------------------------------------------

 SCF Done:  E(RwB97XD) =  -2905.42308635     A.U. after    7 cycles
 Normal termination of Gaussian 09 at Thu Apr 16 14:17:05 2020.
