 Gaussian 09, Revision C.01,
 Gaussian 09:  EM64L-G09RevC.01 23-Sep-2011

 ----------------------------------------------------------------------
 #p wb97xd/aug-cc-PVTz iop(3/107=0250000000) iop(3/108=0250000000) int=
 ultrafine Scan
 ----------------------------------------------------------------------

 (Enter /home/matheus/.gaussian/g09/l101.exe)
 ---
 TCC
 ---
 Charge =  0 Multiplicity = 1

 SCF Done:  E(RwB97XD) =  -2905.42631226     A.U. after   13 cycles

 The electronic state is 1-A.
 Alpha  occ. eigenvalues -- -513.09030 -67.35856 -60.90737 -60.90724 -60.90716
 Alpha  occ. eigenvalues --  -19.33898 -19.33509  -9.81184  -7.50521  -7.50476
 Alpha  occ. eigenvalues --   -7.50451  -3.37202  -3.37193  -3.37174  -3.37137
 Alpha  occ. eigenvalues --   -3.37135  -1.24403  -1.03310  -1.01853  -0.65704
 Alpha  occ. eigenvalues --   -0.60933  -0.52871  -0.49652  -0.49182  -0.48482
 Alpha  occ. eigenvalues --   -0.43841  -0.38356
 Alpha virt. eigenvalues --    0.03598   0.04340   0.08207   0.09939   0.10666
 Alpha virt. eigenvalues --    0.11757   0.13634   0.14181   0.16882   0.17867
 Alpha virt. eigenvalues --    0.18542   0.19124   0.20683   0.22364   0.23722

 Mulliken atomic charges:
              1
     1  O   -0.198689
     2  O   -0.268933
     3  H    0.212007
     4  H    0.248378
     5  Kr   0.007237
 Sum of Mulliken atomic charges =   0.00000

 Dipole moment (field-independent basis, Debye):
    X=             -0.7102    Y=             -0.3699    Z=              1.1774  Tot=              1.4239
 Quadrupole moment (field-independent basis, Debye-Ang):
   XX=            -29.6444   YY=            -28.1217   ZZ=            -29.7289
   XY=             -3.4364   XZ=              3.3847   YZ=             -1.3283

 SCF Done:  E(RwB97XD) =  -2905.42803475     A.U. after    9 cycles
 SCF Done:  E(RwB97XD) =  -2905.42915621     A.U. after    9 cycles
 SCF Done:  E(RwB97XD) =  -2905.42987148     A.U. after    9 cycles
 SCF Done:  E(RwB97XD) =  -2905.43029797     A.U. after    9 cycles
 SCF Done:  E(RwB97XD) =  -2905.43053263     A.U. after    9 cycles
 SCF Done:  E(RwB97XD) =  -2905.43063368     A.U. after    9 cycles
 SCF Done:  E(RwB97XD) =  -2905.43065864     A.U. after    9 cycles
 SCF Done:  E(RwB97XD) =  -2905.43063073     A.U. after    9 cycles
 SCF Done:  E(RwB97XD) =  -2905.43056925     A.U. after    9 cycles
 SCF Done:  E(RwB97XD) =  -2905.43040887     A.U. after    8 cycles
 SCF Done:  E(RwB97XD) =  -2905.43032283     A.U. after    8 cycles
 SCF Done:  E(RwB97XD) =  -2905.43023570     A.U. after    8 cycles
 SCF Done:  E(RwB97XD) =  -2905.43015606     A.U. after    8 cycles
 SCF Done:  E(RwB97XD) =  -2905.43008046     A.U. after    8 cycles
 SCF Done:  E(RwB97XD) =  -2905.43000939     A.U. after    8 cycles
 SCF Done:  E(RwB97XD) =  -2905.42994550     A.U. after    8 cycles
 SCF Done:  E(RwB97XD) =  -2905.42988876     A.U. after    8 cycles
 SCF Done:  E(RwB97XD) =  -2905.42983661     A.U. after    8 cycles

                         Standard orientation:
 ---------------------------------------------------------------------
 Center     Atomic      Atomic             Coordinates (Angstroms)
 Number     Number       Type             X           Y           Z
 ---------------------------------------------------------------------
      1          8           0        3.342996   -0.702237   -0.093274
      2          8           0        3.335200    0.744203    0.007973
      3          1           0        3.941638   -1.045570    0.582674
      4          1           0        2.414927    1.036458    0.036974
      5         36           0       -1.660615   -0.009073    0.001743
 ---------------------------------------------------------------------

 SCF Done:  E(RwB97XD) =  -2905.42979049     A.U. after    8 cycles
 Normal termination of Gaussian 09 at Thu Apr 16 10:49:11 2020.
