 Gaussian 09, Revision C.01,
 Gaussian 09:  EM64L-G09RevC.01 23-Sep-2011

 ----------------------------------------------------------------------
 #p wb97xd/aug-cc-PVTz iop(3/107=0250000000) iop(3/108=0250000000) int=
 ultrafine Scan
 ----------------------------------------------------------------------

 (Enter /home/matheus/.gaussian/g09/l101.exe)
 ---
 TCC
 ---
 Charge =  0 Multiplicity = 1

 SCF Done:  E(RwB97XD) =  -2905.42484578     A.U. after   13 cycles

 The electronic state is 1-A.
 Alpha  occ. eigenvalues -- -513.08955 -67.35781 -60.90663 -60.90649 -60.90641
 Alpha  occ. eigenvalues --  -19.33770 -19.33367  -9.81109  -7.50447  -7.50399
 Alpha  occ. eigenvalues --   -7.50377  -3.37127  -3.37117  -3.37100  -3.37062
 Alpha  occ. eigenvalues --   -3.37060  -1.24306  -1.03288  -1.01771  -0.65167
 Alpha  occ. eigenvalues --   -0.61446  -0.52319  -0.49679  -0.49067  -0.48504
 Alpha  occ. eigenvalues --   -0.44896  -0.37315
 Alpha virt. eigenvalues --    0.03652   0.04339   0.08154   0.10064   0.10761
 Alpha virt. eigenvalues --    0.11704   0.13612   0.14415   0.16897   0.17701
 Alpha virt. eigenvalues --    0.18634   0.19341   0.20749   0.22919   0.23583

 Mulliken atomic charges:
              1
     1  O   -0.191176
     2  O   -0.272771
     3  H    0.207175
     4  H    0.249632
     5  Kr   0.007140
 Sum of Mulliken atomic charges =   0.00000

 Dipole moment (field-independent basis, Debye):
    X=              0.3728    Y=             -0.3212    Z=              0.7784  Tot=              0.9209
 Quadrupole moment (field-independent basis, Debye-Ang):
   XX=            -27.4800   YY=            -28.2667   ZZ=            -30.2851
   XY=              3.7260   XZ=             -2.4162   YZ=             -0.8387

 SCF Done:  E(RwB97XD) =  -2905.42654042     A.U. after    9 cycles
 SCF Done:  E(RwB97XD) =  -2905.42764416     A.U. after    9 cycles
 SCF Done:  E(RwB97XD) =  -2905.42835086     A.U. after    9 cycles
 SCF Done:  E(RwB97XD) =  -2905.42877507     A.U. after    9 cycles
 SCF Done:  E(RwB97XD) =  -2905.42901288     A.U. after    9 cycles
 SCF Done:  E(RwB97XD) =  -2905.42911668     A.U. after    9 cycles
 SCF Done:  E(RwB97XD) =  -2905.42914508     A.U. after    9 cycles
 SCF Done:  E(RwB97XD) =  -2905.42912381     A.U. after    9 cycles
 SCF Done:  E(RwB97XD) =  -2905.42906728     A.U. after    8 cycles
 SCF Done:  E(RwB97XD) =  -2905.42891526     A.U. after    8 cycles
 SCF Done:  E(RwB97XD) =  -2905.42883232     A.U. after    8 cycles
 SCF Done:  E(RwB97XD) =  -2905.42874838     A.U. after    8 cycles
 SCF Done:  E(RwB97XD) =  -2905.42867064     A.U. after    8 cycles
 SCF Done:  E(RwB97XD) =  -2905.42859704     A.U. after    8 cycles
 SCF Done:  E(RwB97XD) =  -2905.42852725     A.U. after    8 cycles
 SCF Done:  E(RwB97XD) =  -2905.42846489     A.U. after    8 cycles
 SCF Done:  E(RwB97XD) =  -2905.42840943     A.U. after    8 cycles
 SCF Done:  E(RwB97XD) =  -2905.42835842     A.U. after    8 cycles

                         Standard orientation:
 ---------------------------------------------------------------------
 Center     Atomic      Atomic             Coordinates (Angstroms)
 Number     Number       Type             X           Y           Z
 ---------------------------------------------------------------------
      1          8           0       -3.339822   -0.702772   -0.060896
      2          8           0       -3.331040    0.745769    0.003540
      3          1           0       -4.140141   -1.016340    0.379923
      4          1           0       -2.410546    1.038162    0.022364
      5         36           0        1.664377   -0.010161    0.001571
 ---------------------------------------------------------------------

 SCF Done:  E(RwB97XD) =  -2905.42831315     A.U. after    7 cycles
 Normal termination of Gaussian 09 at Thu Apr 16 12:12:04 2020.
