 Gaussian 09, Revision C.01,
 Gaussian 09:  EM64L-G09RevC.01 23-Sep-2011

 ----------------------------------------------------------------------
 #p wb97xd/aug-cc-PVTz iop(3/107=0250000000) iop(3/108=0250000000) int=
 ultrafine Scan
 ----------------------------------------------------------------------

 (Enter /home/matheus/.gaussian/g09/l101.exe)
 ---
 TCC
 ---
 Charge =  0 Multiplicity = 1

 SCF Done:  E(RwB97XD) =  -2905.42312205     A.U. after   12 cycles

 The electronic state is 1-A.
 Alpha  occ. eigenvalues -- -513.10820 -67.37641 -60.92519 -60.92511 -60.92502
 Alpha  occ. eigenvalues --  -19.33959 -19.33679  -9.82966  -7.52293  -7.52266
 Alpha  occ. eigenvalues --   -7.52236  -3.38977  -3.38973  -3.38950  -3.38928
 Alpha  occ. eigenvalues --   -3.38924  -1.24681  -1.03833  -1.02991  -0.68565
 Alpha  occ. eigenvalues --   -0.56167  -0.54378  -0.51370  -0.50906  -0.49891
 Alpha  occ. eigenvalues --   -0.45094  -0.38262
 Alpha virt. eigenvalues --    0.03443   0.04416   0.08531   0.09282   0.10029
 Alpha virt. eigenvalues --    0.11847   0.12752   0.14694   0.17270   0.17686
 Alpha virt. eigenvalues --    0.18157   0.19199   0.20238   0.22035   0.23268

 Mulliken atomic charges:
              1
     1  O   -0.218883
     2  O   -0.252283
     3  H    0.220421
     4  H    0.239848
     5  Kr   0.010897
 Sum of Mulliken atomic charges =   0.00000

 Dipole moment (field-independent basis, Debye):
    X=             -2.9094    Y=             -0.2192    Z=              1.0524  Tot=              3.1017
 Quadrupole moment (field-independent basis, Debye-Ang):
   XX=            -37.7766   YY=            -27.9709   ZZ=            -29.6166
   XY=             -0.8158   XZ=              1.5341   YZ=             -1.3802

 SCF Done:  E(RwB97XD) =  -2905.42522811     A.U. after    9 cycles
 SCF Done:  E(RwB97XD) =  -2905.42661671     A.U. after    9 cycles
 SCF Done:  E(RwB97XD) =  -2905.42751407     A.U. after    8 cycles
 SCF Done:  E(RwB97XD) =  -2905.42805399     A.U. after    8 cycles
 SCF Done:  E(RwB97XD) =  -2905.42835594     A.U. after    8 cycles
 SCF Done:  E(RwB97XD) =  -2905.42849036     A.U. after    8 cycles
 SCF Done:  E(RwB97XD) =  -2905.42851563     A.U. after    8 cycles
 SCF Done:  E(RwB97XD) =  -2905.42847356     A.U. after    8 cycles
 SCF Done:  E(RwB97XD) =  -2905.42838780     A.U. after    8 cycles
 SCF Done:  E(RwB97XD) =  -2905.42816545     A.U. after    8 cycles
 SCF Done:  E(RwB97XD) =  -2905.42804877     A.U. after    8 cycles
 SCF Done:  E(RwB97XD) =  -2905.42793441     A.U. after    8 cycles
 SCF Done:  E(RwB97XD) =  -2905.42782880     A.U. after    8 cycles
 SCF Done:  E(RwB97XD) =  -2905.42773127     A.U. after    8 cycles
 SCF Done:  E(RwB97XD) =  -2905.42764008     A.U. after    8 cycles
 SCF Done:  E(RwB97XD) =  -2905.42755874     A.U. after    8 cycles
 SCF Done:  E(RwB97XD) =  -2905.42748686     A.U. after    8 cycles
 SCF Done:  E(RwB97XD) =  -2905.42742111     A.U. after    7 cycles

                         Standard orientation:
 ---------------------------------------------------------------------
 Center     Atomic      Atomic             Coordinates (Angstroms)
 Number     Number       Type             X           Y           Z
 ---------------------------------------------------------------------
      1          8           0        3.361997   -0.716568   -0.086717
      2          8           0        3.360237    0.729768    0.016285
      3          1           0        2.776556   -1.065308    0.597969
      4          1           0        2.441175    1.025973    0.043562
      5         36           0       -1.638767   -0.001841   -0.002169
 ---------------------------------------------------------------------

 SCF Done:  E(RwB97XD) =  -2905.42736317     A.U. after    7 cycles
 Normal termination of Gaussian 09 at Thu Apr 16 09:43:43 2020.
