 Gaussian 09, Revision C.01,
 Gaussian 09:  EM64L-G09RevC.01 23-Sep-2011

 ----------------------------------------------------------------------
 #p wb97xd/aug-cc-PVTz iop(3/107=0250000000) iop(3/108=0250000000) int=
 ultrafine Scan
 ----------------------------------------------------------------------

 (Enter /home/matheus/.gaussian/g09/l101.exe)
 ---
 TCC
 ---
 Charge =  0 Multiplicity = 1

 SCF Done:  E(RwB97XD) =  -2905.42384723     A.U. after   11 cycles

 The electronic state is 1-A.
 Alpha  occ. eigenvalues -- -513.08937 -67.35763 -60.90644 -60.90630 -60.90623
 Alpha  occ. eigenvalues --  -19.33685 -19.33276  -9.81090  -7.50427  -7.50379
 Alpha  occ. eigenvalues --   -7.50359  -3.37107  -3.37097  -3.37082  -3.37042
 Alpha  occ. eigenvalues --   -3.37041  -1.24247  -1.03272  -1.01746  -0.64872
 Alpha  occ. eigenvalues --   -0.61696  -0.51907  -0.49778  -0.49006  -0.48580
 Alpha  occ. eigenvalues --   -0.45474  -0.36761
 Alpha virt. eigenvalues --    0.03675   0.04341   0.08124   0.10139   0.10805
 Alpha virt. eigenvalues --    0.11683   0.13591   0.14450   0.17139   0.17458
 Alpha virt. eigenvalues --    0.18672   0.19516   0.20726   0.23284   0.23573

 Mulliken atomic charges:
              1
     1  O   -0.179771
     2  O   -0.276777
     3  H    0.196365
     4  H    0.250782
     5  Kr   0.009402
 Sum of Mulliken atomic charges =   0.00000

 Dipole moment (field-independent basis, Debye):
    X=             -0.1979    Y=             -0.2885    Z=              0.2721  Tot=              0.4432
 Quadrupole moment (field-independent basis, Debye-Ang):
   XX=            -26.2454   YY=            -28.3527   ZZ=            -30.6437
   XY=             -3.8542   XZ=              0.8771   YZ=             -0.2856

 SCF Done:  E(RwB97XD) =  -2905.42552387     A.U. after    9 cycles
 SCF Done:  E(RwB97XD) =  -2905.42661772     A.U. after    9 cycles
 SCF Done:  E(RwB97XD) =  -2905.42731971     A.U. after    9 cycles
 SCF Done:  E(RwB97XD) =  -2905.42774239     A.U. after    9 cycles
 SCF Done:  E(RwB97XD) =  -2905.42798251     A.U. after    9 cycles
 SCF Done:  E(RwB97XD) =  -2905.42808801     A.U. after    8 cycles
 SCF Done:  E(RwB97XD) =  -2905.42811838     A.U. after    8 cycles
 SCF Done:  E(RwB97XD) =  -2905.42810058     A.U. after    8 cycles
 SCF Done:  E(RwB97XD) =  -2905.42804701     A.U. after    8 cycles
 SCF Done:  E(RwB97XD) =  -2905.42789929     A.U. after    8 cycles
 SCF Done:  E(RwB97XD) =  -2905.42781822     A.U. after    8 cycles
 SCF Done:  E(RwB97XD) =  -2905.42773556     A.U. after    8 cycles
 SCF Done:  E(RwB97XD) =  -2905.42765864     A.U. after    8 cycles
 SCF Done:  E(RwB97XD) =  -2905.42758591     A.U. after    8 cycles
 SCF Done:  E(RwB97XD) =  -2905.42751662     A.U. after    8 cycles
 SCF Done:  E(RwB97XD) =  -2905.42745482     A.U. after    8 cycles
 SCF Done:  E(RwB97XD) =  -2905.42740005     A.U. after    8 cycles
 SCF Done:  E(RwB97XD) =  -2905.42734952     A.U. after    7 cycles

                         Standard orientation:
 ---------------------------------------------------------------------
 Center     Atomic      Atomic             Coordinates (Angstroms)
 Number     Number       Type             X           Y           Z
 ---------------------------------------------------------------------
      1          8           0        3.338158   -0.703367   -0.021128
      2          8           0        3.328859    0.746436    0.000898
      3          1           0        4.245173   -0.998426    0.131910
      4          1           0        2.408245    1.038983    0.007406
      5         36           0       -1.666376   -0.010697    0.000625
 ---------------------------------------------------------------------

 SCF Done:  E(RwB97XD) =  -2905.42730469     A.U. after    7 cycles
 Normal termination of Gaussian 09 at Thu Apr 16 11:34:02 2020.
