 Gaussian 09, Revision C.01,
 Gaussian 09:  EM64L-G09RevC.01 23-Sep-2011

 ----------------------------------------------------------------------
 #p wb97xd/aug-cc-PVTz iop(3/107=0250000000) iop(3/108=0250000000) int=
 ultrafine Scan
 ----------------------------------------------------------------------

 (Enter /home/matheus/.gaussian/g09/l101.exe)
 ---
 TCC
 ---
 Charge =  0 Multiplicity = 1

 SCF Done:  E(RwB97XD) =  -2905.41730889     A.U. after   11 cycles

 The electronic state is 1-A1.
 Alpha  occ. eigenvalues -- -513.12200 -67.39012 -60.93891 -60.93884 -60.93875
 Alpha  occ. eigenvalues --  -19.33424 -19.33420  -9.84332  -7.53658  -7.53632
 Alpha  occ. eigenvalues --   -7.53603  -3.40343  -3.40340  -3.40314  -3.40295
 Alpha  occ. eigenvalues --   -3.40291  -1.24485  -1.05198  -1.02711  -0.69293
 Alpha  occ. eigenvalues --   -0.54967  -0.53460  -0.52640  -0.51105  -0.50962
 Alpha  occ. eigenvalues --   -0.48353  -0.36529
 Alpha virt. eigenvalues --    0.03545   0.04509   0.08710   0.09446   0.09489
 Alpha virt. eigenvalues --    0.11951   0.12611   0.16611   0.17302   0.17474
 Alpha virt. eigenvalues --    0.18751   0.19182   0.20028   0.21393   0.22422

 Mulliken atomic charges:
              1
     1  O   -0.235940
     2  O   -0.235940
     3  H    0.228975
     4  H    0.228975
     5  Kr   0.013931
 Sum of Mulliken atomic charges =   0.00000

 Dipole moment (field-independent basis, Debye):
    X=              0.0000    Y=              0.0000    Z=              3.7218  Tot=              3.7218
 Quadrupole moment (field-independent basis, Debye-Ang):
   XX=            -30.5405   YY=            -28.1577   ZZ=            -38.6553
   XY=              0.0000   XZ=              0.0000   YZ=              0.0000

 SCF Done:  E(RwB97XD) =  -2905.41997903     A.U. after    9 cycles
 SCF Done:  E(RwB97XD) =  -2905.42174331     A.U. after    9 cycles
 SCF Done:  E(RwB97XD) =  -2905.42288388     A.U. after    8 cycles
 SCF Done:  E(RwB97XD) =  -2905.42357922     A.U. after    8 cycles
 SCF Done:  E(RwB97XD) =  -2905.42397555     A.U. after    8 cycles
 SCF Done:  E(RwB97XD) =  -2905.42415773     A.U. after    8 cycles
 SCF Done:  E(RwB97XD) =  -2905.42420781     A.U. after    8 cycles
 SCF Done:  E(RwB97XD) =  -2905.42417350     A.U. after    8 cycles
 SCF Done:  E(RwB97XD) =  -2905.42408277     A.U. after    7 cycles
 SCF Done:  E(RwB97XD) =  -2905.42382643     A.U. after    7 cycles
 SCF Done:  E(RwB97XD) =  -2905.42368928     A.U. after    7 cycles
 SCF Done:  E(RwB97XD) =  -2905.42354835     A.U. after    7 cycles
 SCF Done:  E(RwB97XD) =  -2905.42342187     A.U. after    7 cycles
 SCF Done:  E(RwB97XD) =  -2905.42330311     A.U. after    7 cycles
 SCF Done:  E(RwB97XD) =  -2905.42319174     A.U. after    7 cycles
 SCF Done:  E(RwB97XD) =  -2905.42309234     A.U. after    7 cycles
 SCF Done:  E(RwB97XD) =  -2905.42300432     A.U. after    7 cycles
 SCF Done:  E(RwB97XD) =  -2905.42292378     A.U. after    7 cycles

                         Standard orientation:
 ---------------------------------------------------------------------
 Center     Atomic      Atomic             Coordinates (Angstroms)
 Number     Number       Type             X           Y           Z
 ---------------------------------------------------------------------
      1          8           0        0.000000    0.725000   -3.367360
      2          8           0        0.000000   -0.725000   -3.367360
      3          1           0        0.000000    1.023510   -2.448639
      4          1           0        0.000000   -1.023510   -2.448639
      5         36           0        0.000000    0.000000    1.632640
 ---------------------------------------------------------------------

 SCF Done:  E(RwB97XD) =  -2905.42285219     A.U. after    7 cycles
 Normal termination of Gaussian 09 at Thu Apr 16 09:00:52 2020.
