 Gaussian 09, Revision C.01,
 Gaussian 09:  EM64L-G09RevC.01 23-Sep-2011

 ----------------------------------------------------------------------
 #p wb97xd/aug-cc-PVTz iop(3/107=0250000000) iop(3/108=0250000000) int=
 ultrafine Scan
 ----------------------------------------------------------------------

 (Enter /home/matheus/.gaussian/g09/l101.exe)
 ---
 TCC
 ---
 Charge =  0 Multiplicity = 1

 SCF Done:  E(RwB97XD) =  -2905.42370721     A.U. after   11 cycles

 The electronic state is 1-A'.
 Alpha  occ. eigenvalues -- -513.08934 -67.35760 -60.90641 -60.90626 -60.90620
 Alpha  occ. eigenvalues --  -19.33675 -19.33264  -9.81086  -7.50424  -7.50376
 Alpha  occ. eigenvalues --   -7.50355  -3.37104  -3.37094  -3.37078  -3.37039
 Alpha  occ. eigenvalues --   -3.37038  -1.24240  -1.03270  -1.01743  -0.64834
 Alpha  occ. eigenvalues --   -0.61729  -0.51844  -0.49799  -0.48996  -0.48593
 Alpha  occ. eigenvalues --   -0.45549  -0.36691
 Alpha virt. eigenvalues --    0.03677   0.04341   0.08121   0.10150   0.10811
 Alpha virt. eigenvalues --    0.11680   0.13587   0.14445   0.17262   0.17342
 Alpha virt. eigenvalues --    0.18675   0.19543   0.20718   0.23283   0.23631

 Mulliken atomic charges:
              1
     1  O   -0.177710
     2  O   -0.277435
     3  H    0.194040
     4  H    0.251159
     5  Kr   0.009947
 Sum of Mulliken atomic charges =   0.00000

 Dipole moment (field-independent basis, Debye):
    X=              0.2808    Y=              0.1802    Z=              0.0000  Tot=              0.3337
 Quadrupole moment (field-independent basis, Debye-Ang):
   XX=            -28.2166   YY=            -26.2304   ZZ=            -30.6927
   XY=             -3.9100   XZ=              0.0000   YZ=              0.0000

 SCF Done:  E(RwB97XD) =  -2905.42537958     A.U. after    9 cycles
 SCF Done:  E(RwB97XD) =  -2905.42647770     A.U. after    9 cycles
 SCF Done:  E(RwB97XD) =  -2905.42717766     A.U. after    9 cycles
 SCF Done:  E(RwB97XD) =  -2905.42759895     A.U. after    9 cycles
 SCF Done:  E(RwB97XD) =  -2905.42783951     A.U. after    8 cycles
 SCF Done:  E(RwB97XD) =  -2905.42794604     A.U. after    8 cycles
 SCF Done:  E(RwB97XD) =  -2905.42797646     A.U. after    8 cycles
 SCF Done:  E(RwB97XD) =  -2905.42795886     A.U. after    8 cycles
 SCF Done:  E(RwB97XD) =  -2905.42790619     A.U. after    8 cycles
 SCF Done:  E(RwB97XD) =  -2905.42775896     A.U. after    8 cycles
 SCF Done:  E(RwB97XD) =  -2905.42767802     A.U. after    8 cycles
 SCF Done:  E(RwB97XD) =  -2905.42759526     A.U. after    8 cycles
 SCF Done:  E(RwB97XD) =  -2905.42751855     A.U. after    8 cycles
 SCF Done:  E(RwB97XD) =  -2905.42744587     A.U. after    8 cycles
 SCF Done:  E(RwB97XD) =  -2905.42737661     A.U. after    8 cycles
 SCF Done:  E(RwB97XD) =  -2905.42731482     A.U. after    8 cycles
 SCF Done:  E(RwB97XD) =  -2905.42725996     A.U. after    7 cycles
 SCF Done:  E(RwB97XD) =  -2905.42720947     A.U. after    7 cycles

                         Standard orientation:
 ---------------------------------------------------------------------
 Center     Atomic      Atomic             Coordinates (Angstroms)
 Number     Number       Type             X           Y           Z
 ---------------------------------------------------------------------
      1          8           0        0.725000   -3.333333    0.000000
      2          8           0       -0.725000   -3.333333    0.000000
      3          1           0        1.023510   -4.252054    0.000000
      4          1           0       -1.023510   -2.414613    0.000000
      5         36           0        0.000000    1.666667    0.000000
 ---------------------------------------------------------------------

 SCF Done:  E(RwB97XD) =  -2905.42716473     A.U. after    7 cycles
 Normal termination of Gaussian 09 at Thu Apr 16 11:43:54 2020.
